LAMMPS (17 Nov 2015)
WARNING: OMP_NUM_THREADS environment is not set. (../comm.cpp:90)
  using 1 OpenMP thread(s) per MPI task
Reading data file ...
  orthogonal box = (-1000 -1000 -1000) to (1000 1000 1000)
  1 by 1 by 1 MPI processor grid
  reading atoms ...
  54 atoms
  scanning bonds ...
  3 = max bonds/atom
  scanning angles ...
  6 = max angles/atom
  scanning dihedrals ...
  17 = max dihedrals/atom
  reading bonds ...
  54 bonds
  reading angles ...
  93 angles
  reading dihedrals ...
  134 dihedrals
Finding 1-2 1-3 1-4 neighbors ...
 Special bond factors lj:   0          0          1         
 Special bond factors coul: 0          0          1         
  4 = max # of 1-2 neighbors
  9 = max # of 1-3 neighbors
  13 = max # of special neighbors
WARNING: Resetting reneighboring criteria during minimization (../min.cpp:168)
Neighbor list info ...
  1 neighbor list requests
  update every 1 steps, delay 0 steps, check yes
  max neighbors/atom: 2000, page size: 100000
  master list distance cutoff = 12
  ghost atom cutoff = 12
  binsize = 6, bins = 334 334 334
Setting up sd style minimization ...
  Unit style: real
Memory usage per processor = 163.467 Mbytes
Step Temp PotEng KinEng TotEng Press Volume E_bond E_angle E_dihed E_impro E_pair E_coul 
       0       0.000000      71.839196       0.000000      71.839196       0.002522 8000000000.000000       7.484108       6.311105       7.832160       0.000000      50.211823      -9.461408 
       1       0.000000      64.636765       0.000000      64.636765       0.002362 8000000000.000000       4.953223       5.858866       7.786219       0.000000      46.038456     -10.216192 
       2       0.000000      62.563617       0.000000      62.563617       0.002256 8000000000.000000       4.152857       7.166683       7.788768       0.000000      43.455309     -11.116592 
       3       0.000000      61.084854       0.000000      61.084854       0.002170 8000000000.000000       4.946539       7.058897       7.752459       0.000000      41.326959     -11.954841 
       4       0.000000      59.920631       0.000000      59.920631       0.002078 8000000000.000000       4.464452       8.020494       7.748567       0.000000      39.687119     -12.485319 
       5       0.000000      58.956006       0.000000      58.956006       0.001984 8000000000.000000       5.225165       8.046719       7.722549       0.000000      37.961573     -13.186471 
       6       0.000000      58.128998       0.000000      58.128998       0.001905 8000000000.000000       4.889748       8.723626       7.718122       0.000000      36.797502     -13.538041 
       7       0.000000      57.405809       0.000000      57.405809       0.001818 8000000000.000000       5.541463       8.869612       7.698982       0.000000      35.295751     -14.160933 
       8       0.000000      56.764576       0.000000      56.764576       0.001750 8000000000.000000       5.300732       9.355281       7.694776       0.000000      34.413787     -14.408300 
       9       0.000000      56.190495       0.000000      56.190495       0.001670 8000000000.000000       5.828566       9.573033       7.680799       0.000000      33.108097     -14.957692 
      10       0.000000      55.674213       0.000000      55.674213       0.001612 8000000000.000000       5.674569       9.933057       7.676671       0.000000      32.389916     -15.143229 
      11       0.000000      55.205935       0.000000      55.205935       0.001543 8000000000.000000       6.084248      10.177217       7.666635       0.000000      31.277835     -15.619725 
      12       0.000000      54.780860       0.000000      54.780860       0.001487 8000000000.000000       6.007984      10.457580       7.662477       0.000000      30.652819     -15.771467 
      13       0.000000      54.394027       0.000000      54.394027       0.001421 8000000000.000000       6.315364      10.698732       7.655439       0.000000      29.724491     -16.177136 
      14       0.000000      54.041376       0.000000      54.041376       0.001368 8000000000.000000       6.302618      10.928975       7.651357       0.000000      29.158426     -16.305548 
      15       0.000000      53.717298       0.000000      53.717298       0.001314 8000000000.000000       6.527982      11.155999       7.646557       0.000000      28.386759     -16.648496 
      16       0.000000      53.418202       0.000000      53.418202       0.001262 8000000000.000000       6.564281      11.356133       7.642540       0.000000      27.855248     -16.763580 
      17       0.000000      53.141132       0.000000      53.141132       0.001216 8000000000.000000       6.725931      11.564234       7.639349       0.000000      27.211618     -17.055418 
      18       0.000000      52.882974       0.000000      52.882974       0.001166 8000000000.000000       6.799978      11.745315       7.635425       0.000000      26.702256     -17.160245 
      19       0.000000      52.641718       0.000000      52.641718       0.001128 8000000000.000000       6.912354      11.934598       7.633425       0.000000      26.161341     -17.410706 
      20       0.000000      52.413632       0.000000      52.413632       0.001080 8000000000.000000       7.015982      12.104070       7.629628       0.000000      25.663952     -17.509641 
      21       0.000000      52.198957       0.000000      52.198957       0.001050 8000000000.000000       7.089652      12.276614       7.628544       0.000000      25.204147     -17.728507 
      22       0.000000      51.993161       0.000000      51.993161       0.001002 8000000000.000000       7.216711      12.439271       7.624896       0.000000      24.712284     -17.824528 
      23       0.000000      51.798771       0.000000      51.798771       0.000976 8000000000.000000       7.259120      12.597374       7.624489       0.000000      24.317787     -18.018576 
      24       0.000000      51.609848       0.000000      51.609848       0.000929 8000000000.000000       7.405473      12.756343       7.620976       0.000000      23.827057     -18.113719 
      25       0.000000      51.431250       0.000000      51.431250       0.000906 8000000000.000000       7.422189      12.902078       7.621091       0.000000      23.485892     -18.288028 
      26       0.000000      51.255718       0.000000      51.255718       0.000856 8000000000.000000       7.583924      13.059519       7.617718       0.000000      22.994556     -18.383449 
      27       0.000000      51.090143       0.000000      51.090143       0.000836 8000000000.000000       7.579046      13.194147       7.618189       0.000000      22.698761     -18.541196 
      28       0.000000      50.925285       0.000000      50.925285       0.000786 8000000000.000000       7.754111      13.351085       7.614818       0.000000      22.205272     -18.637877 
      29       0.000000      50.770194       0.000000      50.770194       0.000769 8000000000.000000       7.731372      13.476212       7.615561       0.000000      21.947048     -18.782176 
      30       0.000000      50.613475       0.000000      50.613475       0.000718 8000000000.000000       7.918814      13.633200       7.612135       0.000000      21.449325     -18.881517 
      31       0.000000      50.466671       0.000000      50.466671       0.000704 8000000000.000000       7.880240      13.750443       7.613085       0.000000      21.222903     -19.014670 
      32       0.000000      50.316008       0.000000      50.316008       0.000652 8000000000.000000       8.078931      13.908043       7.609532       0.000000      20.719502     -19.117846 
      33       0.000000      50.175729       0.000000      50.175729       0.000640 8000000000.000000       8.026253      14.018734       7.610637       0.000000      20.520105     -19.241750 
      34       0.000000      50.029318       0.000000      50.029318       0.000587 8000000000.000000       8.235323      14.177030       7.606851       0.000000      20.010114     -19.350014 
      35       0.000000      49.894121       0.000000      49.894121       0.000577 8000000000.000000       8.170058      14.282253       7.608063       0.000000      19.833746     -19.466147 
      36       0.000000      49.750603       0.000000      49.750603       0.000522 8000000000.000000       8.389435      14.440539       7.603868       0.000000      19.316761     -19.580365 
      37       0.000000      49.619416       0.000000      49.619416       0.000513 8000000000.000000       8.312296      14.540973       7.605157       0.000000      19.160990     -19.688888 
      38       0.000000      49.478080       0.000000      49.478080       0.000456 8000000000.000000       8.541855      14.697334       7.600301       0.000000      18.638591     -19.803603 
      39       0.000000      49.349904       0.000000      49.349904       0.000449 8000000000.000000       8.453541      14.793562       7.601615       0.000000      18.501185     -19.905260 
      40       0.000000      49.208142       0.000000      49.208142       0.000390 8000000000.000000       8.692119      14.948613       7.595547       0.000000      17.971864     -20.021918 
      41       0.000000      49.081153       0.000000      49.081153       0.000385 8000000000.000000       8.592871      15.041894       7.596860       0.000000      17.849529     -20.118912 
      42       0.000000      48.937159       0.000000      48.937159       0.000320 8000000000.000000       8.843053      15.196687       7.588728       0.000000      17.308691     -20.244483 
      43       0.000000      48.809383       0.000000      48.809383       0.000315 8000000000.000000       8.731603      15.287163       7.589937       0.000000      17.200680     -20.336661 
      44       0.000000      48.657164       0.000000      48.657164       0.000250 8000000000.000000       8.992889      15.439345       7.576753       0.000000      16.648177     -20.466375 
      45       0.000000      48.524626       0.000000      48.524626       0.000246 8000000000.000000       8.867291      15.529465       7.577843       0.000000      16.550027     -20.557022 
      46       0.000000      48.353457       0.000000      48.353457       0.000176 8000000000.000000       9.160185      15.684641       7.554032       0.000000      15.954599     -20.712812 
      47       0.000000      48.209094       0.000000      48.209094       0.000174 8000000000.000000       9.011040      15.774132       7.554952       0.000000      15.868970     -20.799000 
      48       0.000000      48.035954       0.000000      48.035954       0.000122 8000000000.000000       9.208112      15.886516       7.515415       0.000000      15.425910     -20.892871 
      49       0.000000      47.900694       0.000000      47.900694       0.000117 8000000000.000000       9.084792      15.989054       7.515898       0.000000      15.310951     -21.007067 
      50       0.000000      47.877484       0.000000      47.877484       0.000110 8000000000.000000       9.150052      15.977063       7.509587       0.000000      15.240782     -21.041223 
Loop time of 0.00880098 on 1 procs for 50 steps with 54 atoms

90.9% CPU use with 1 MPI tasks x 1 OpenMP threads

Minimization stats:
  Stopping criterion = energy tolerance
  Energy initial, next-to-last, final = 
         71.8391955099      47.9006938494      47.8774836368
  Force two-norm initial, final = 148.319 6.63124
  Force max component initial, final = 32.9245 2.21673
  Final line search alpha, max atom move = 0.0588092 0.130364
  Iterations, force evaluations = 50 100

MPI task timing breakdown:
Section |  min time  |  avg time  |  max time  |%varavg| %total
---------------------------------------------------------------
Pair    | 0.0042865  | 0.0042865  | 0.0042865  |   0.0 | 48.71
Bond    | 0.0034831  | 0.0034831  | 0.0034831  |   0.0 | 39.58
Neigh   | 0          | 0          | 0          |   0.0 |  0.00
Comm    | 1.1206e-05 | 1.1206e-05 | 1.1206e-05 |   0.0 |  0.13
Output  | 0.00074339 | 0.00074339 | 0.00074339 |   0.0 |  8.45
Modify  | 0          | 0          | 0          |   0.0 |  0.00
Other   |            | 0.0002768  |            |       |  3.15

Nlocal:    54 ave 54 max 54 min
Histogram: 1 0 0 0 0 0 0 0 0 0
Nghost:    0 ave 0 max 0 min
Histogram: 1 0 0 0 0 0 0 0 0 0
Neighs:    1274 ave 1274 max 1274 min
Histogram: 1 0 0 0 0 0 0 0 0 0

Total # of neighbors = 1274
Ave neighs/atom = 23.5926
Ave special neighs/atom = 5.44444
Neighbor list builds = 0
Dangerous builds = 0

Please see the log.cite file for references relevant to this simulation

Total wall time: 0:00:12
