
     Program PWSCF v.5.2.0 starts on 14Dec2016 at 12: 6:51 

     This program is part of the open-source Quantum ESPRESSO suite
     for quantum simulation of materials; please cite
         "P. Giannozzi et al., J. Phys.:Condens. Matter 21 395502 (2009);
          URL http://www.quantum-espresso.org", 
     in publications or presentations arising from this work. More details at
     http://www.quantum-espresso.org/quote

     Parallel version (MPI), running on     8 processors
     R & G space division:  proc/nbgrp/npool/nimage =       8
     Waiting for input...
     Reading input from standard input
     Message from routine read_cards :
     DEPRECATED: no units specified in CELL_PARAMETERS card

     Current dimensions of program PWSCF are:
     Max number of different atomic species (ntypx) = 10
     Max number of k-points (npk) =  40000
     Max angular momentum in pseudopotentials (lmaxx) =  3
               file H.pz-rrkjus.UPF: wavefunction(s)  1S renormalized
               file O.pz-rrkjus.UPF: wavefunction(s)  2S renormalized

     gamma-point specific algorithms are used

     Subspace diagonalization in iterative solution of the eigenvalue problem:
     a serial algorithm will be used


     Parallelization info
     --------------------
     sticks:   dense  smooth     PW     G-vecs:    dense   smooth      PW
     Min        7640    7640   1908              1420643  1420643  177592
     Max        7642    7642   1910              1420646  1420646  177602
     Sum       61133   61133  15273             11365163 11365163 1420755
     Tot       30567   30567   7637



     bravais-lattice index     =            0
     lattice parameter (alat)  =      40.0000  a.u.
     unit-cell volume          =   64000.0000 (a.u.)^3
     number of atoms/cell      =            2
     number of atomic types    =            2
     number of electrons       =         7.00
     number of Kohn-Sham states=            8
     kinetic-energy cutoff     =     120.0000  Ry
     charge density cutoff     =     480.0000  Ry
     convergence threshold     =      1.0E-07
     mixing beta               =       0.7000
     number of iterations used =            8  plain     mixing
     Exchange-correlation      =  SLA  PZ   NOGX NOGC ( 1  1  0  0 0 0)
     nstep                     =           50


     celldm(1)=  40.000000  celldm(2)=   0.000000  celldm(3)=   0.000000
     celldm(4)=   0.000000  celldm(5)=   0.000000  celldm(6)=   0.000000

     crystal axes: (cart. coord. in units of alat)
               a(1) = (   1.000000   0.000000   0.000000 )  
               a(2) = (   0.000000   1.000000   0.000000 )  
               a(3) = (   0.000000   0.000000   1.000000 )  

     reciprocal axes: (cart. coord. in units 2 pi/alat)
               b(1) = (  1.000000  0.000000  0.000000 )  
               b(2) = (  0.000000  1.000000  0.000000 )  
               b(3) = (  0.000000  0.000000  1.000000 )  


     PseudoPot. # 1 for H  read from file:
     pseudo/H.pz-rrkjus.UPF
     MD5 check sum: c325bf28c048744aca8614a82587641e
     Pseudo is Ultrasoft, Zval =  1.0
     Generated by new atomic code, or converted to UPF format
     Using radial grid of 1061 points,  2 beta functions with: 
                l(1) =   0
                l(2) =   0
     Q(r) pseudized with 0 coefficients 


     PseudoPot. # 2 for O  read from file:
     pseudo/O.pz-rrkjus.UPF
     MD5 check sum: 24fb942a68ef5d262e498166c462ef4a
     Pseudo is Ultrasoft, Zval =  6.0
     Generated by new atomic code, or converted to UPF format
     Using radial grid of 1269 points,  4 beta functions with: 
                l(1) =   0
                l(2) =   0
                l(3) =   1
                l(4) =   1
     Q(r) pseudized with 0 coefficients 


     atomic species   valence    mass     pseudopotential
        H              1.00     1.00000     H ( 1.00)
        O              6.00    16.00000     O ( 1.00)

      8 Sym. Ops. (no inversion) found



   Cartesian axes

     site n.     atom                  positions (alat units)
         1           H   tau(   1) = (   0.0000000   0.0000000   0.0000000  )
         2           O   tau(   2) = (   0.0240000   0.0000000   0.0000000  )

     number of k points=     1  gaussian smearing, width (Ry)=  0.0100
                       cart. coord. in units 2pi/alat
        k(    1) = (   0.0000000   0.0000000   0.0000000), wk =   2.0000000

     Dense  grid:  5682582 G-vectors     FFT dimensions: ( 288, 288, 288)

     Largest allocated arrays     est. size (Mb)     dimensions
        Kohn-Sham Wavefunctions        10.84 Mb     (   88796,    8)
        NL pseudopotentials            13.55 Mb     (   88796,   10)
        Each V/rho on FFT grid         45.56 Mb     ( 2985984)
        Each G-vector array             5.42 Mb     (  710323)
        G-vector shells                 0.12 Mb     (   16141)
     Largest temporary arrays     est. size (Mb)     dimensions
        Auxiliary wavefunctions        21.68 Mb     (   88796,   32)
        Each subspace H/S matrix        0.01 Mb     (      32,   32)
        Each <psi_i|beta_j> matrix      0.00 Mb     (      10,    8)
        Arrays for rho mixing         364.50 Mb     ( 2985984,    8)

     Initial potential from superposition of free atoms
     Check: negative starting charge=   -0.001196

     starting charge    6.90788, renormalised to    7.00000

     negative rho (up, down):  1.212E-03 0.000E+00
     Starting wfc are    5 randomized atomic wfcs +    3 random wfc

     total cpu time spent up to now is       18.3 secs

     per-process dynamical memory:   369.8 Mb

     Self-consistent Calculation

     iteration #  1     ecut=   120.00 Ry     beta=0.70
     Davidson diagonalization with overlap
     ethr =  1.00E-02,  avg # of iterations =  8.0

     negative rho (up, down):  4.245E-04 0.000E+00

     total cpu time spent up to now is       43.4 secs

     total energy              =     -30.87201934 Ry
     Harris-Foulkes estimate   =     -31.52077839 Ry
     estimated scf accuracy    <       0.86833966 Ry

     iteration #  2     ecut=   120.00 Ry     beta=0.70
     Davidson diagonalization with overlap
     ethr =  1.00E-02,  avg # of iterations =  2.0

     negative rho (up, down):  2.417E-04 0.000E+00

     total cpu time spent up to now is       60.2 secs

     total energy              =     -31.06834426 Ry
     Harris-Foulkes estimate   =     -31.15376122 Ry
     estimated scf accuracy    <       0.14932702 Ry

     iteration #  3     ecut=   120.00 Ry     beta=0.70
     Davidson diagonalization with overlap
     ethr =  2.13E-03,  avg # of iterations =  2.0

     negative rho (up, down):  1.455E-04 0.000E+00

     total cpu time spent up to now is       76.5 secs

     total energy              =     -31.10081706 Ry
     Harris-Foulkes estimate   =     -31.10329121 Ry
     estimated scf accuracy    <       0.00441079 Ry

     iteration #  4     ecut=   120.00 Ry     beta=0.70
     Davidson diagonalization with overlap
     ethr =  6.30E-05,  avg # of iterations = 17.0

     negative rho (up, down):  1.446E-04 0.000E+00

     total cpu time spent up to now is      111.3 secs

     total energy              =     -31.10180356 Ry
     Harris-Foulkes estimate   =     -31.10215177 Ry
     estimated scf accuracy    <       0.00137608 Ry

     iteration #  5     ecut=   120.00 Ry     beta=0.70
     Davidson diagonalization with overlap
     ethr =  1.97E-05,  avg # of iterations =  3.0

     negative rho (up, down):  1.444E-04 0.000E+00

     total cpu time spent up to now is      127.9 secs

     total energy              =     -31.10190737 Ry
     Harris-Foulkes estimate   =     -31.10226983 Ry
     estimated scf accuracy    <       0.00319603 Ry

     iteration #  6     ecut=   120.00 Ry     beta=0.70
     Davidson diagonalization with overlap
     ethr =  1.97E-05,  avg # of iterations =  1.0

     negative rho (up, down):  1.500E-04 0.000E+00

     total cpu time spent up to now is      143.0 secs

     total energy              =     -31.10208713 Ry
     Harris-Foulkes estimate   =     -31.10208265 Ry
     estimated scf accuracy    <       0.00000135 Ry

     iteration #  7     ecut=   120.00 Ry     beta=0.70
     Davidson diagonalization with overlap
     ethr =  1.93E-08,  avg # of iterations = 13.0

     negative rho (up, down):  1.537E-04 0.000E+00

     total cpu time spent up to now is      170.7 secs

     End of self-consistent calculation

          k = 0.0000 0.0000 0.0000 (710378 PWs)   bands (ev):

   -30.9791 -12.1366  -9.4189  -9.4188  -0.2832   0.0131   0.2552   0.2616

     the Fermi energy is    -9.3540 ev

!    total energy              =     -31.10208756 Ry
     Harris-Foulkes estimate   =     -31.10208758 Ry
     estimated scf accuracy    <       0.00000007 Ry

     The total energy is the sum of the following terms:

     one-electron contribution =     -66.40531121 Ry
     hartree contribution      =      34.14730755 Ry
     xc contribution           =      -7.85976863 Ry
     ewald contribution        =       9.02467281 Ry
     smearing contrib. (-TS)   =      -0.00898808 Ry

     convergence has been achieved in   7 iterations

     Forces acting on atoms (Ry/au):

     atom    1 type  1   force =    -6.74534590    0.00000000    0.00000000
     atom    2 type  2   force =     6.74534590    0.00000000    0.00000000

     Total force =     9.539360     Total SCF correction =     0.000116

     BFGS Geometry Optimization

     number of scf cycles    =   1
     number of bfgs steps    =   0

     energy   new            =     -31.1020875587 Ry

     new trust radius        =       0.5000000000 bohr
     new conv_thr            =       0.0000001000 Ry


ATOMIC_POSITIONS (bohr)
H       -0.500000000   0.000000000   0.000000000
O        1.460000000   0.000000000   0.000000000



     Writing output data file H2.save
     Check: negative starting charge=   -0.001196
     NEW-OLD atomic charge density approx. for the potential
     Check: negative starting charge=   -0.001194

     negative rho (up, down):  1.411E-02 0.000E+00

     total cpu time spent up to now is      200.1 secs

     per-process dynamical memory:   370.9 Mb

     Self-consistent Calculation

     iteration #  1     ecut=   120.00 Ry     beta=0.70
     Davidson diagonalization with overlap
     ethr =  1.00E-06,  avg # of iterations = 17.0

     negative rho (up, down):  2.757E-03 0.000E+00

     total cpu time spent up to now is      240.9 secs

     total energy              =     -32.58531103 Ry
     Harris-Foulkes estimate   =     -32.90961368 Ry
     estimated scf accuracy    <       0.47141324 Ry

     iteration #  2     ecut=   120.00 Ry     beta=0.70
     Davidson diagonalization with overlap
     ethr =  6.73E-03,  avg # of iterations =  2.0

     negative rho (up, down):  1.609E-03 0.000E+00

     total cpu time spent up to now is      257.4 secs

     total energy              =     -32.70111767 Ry
     Harris-Foulkes estimate   =     -32.83114111 Ry
     estimated scf accuracy    <       0.24201831 Ry

     iteration #  3     ecut=   120.00 Ry     beta=0.70
     Davidson diagonalization with overlap
     ethr =  3.46E-03,  avg # of iterations =  2.0

     negative rho (up, down):  4.191E-04 0.000E+00

     total cpu time spent up to now is      273.9 secs

     total energy              =     -32.75055110 Ry
     Harris-Foulkes estimate   =     -32.75101851 Ry
     estimated scf accuracy    <       0.00216385 Ry

     iteration #  4     ecut=   120.00 Ry     beta=0.70
     Davidson diagonalization with overlap
     ethr =  3.09E-05,  avg # of iterations =  6.0

     negative rho (up, down):  2.150E-04 0.000E+00

     total cpu time spent up to now is      294.6 secs

     total energy              =     -32.75102444 Ry
     Harris-Foulkes estimate   =     -32.75120820 Ry
     estimated scf accuracy    <       0.00053585 Ry

     iteration #  5     ecut=   120.00 Ry     beta=0.70
     Davidson diagonalization with overlap
     ethr =  7.65E-06,  avg # of iterations =  6.0

     negative rho (up, down):  1.325E-04 0.000E+00

     total cpu time spent up to now is      315.4 secs

     total energy              =     -32.75089674 Ry
     Harris-Foulkes estimate   =     -32.75149163 Ry
     estimated scf accuracy    <       0.00488652 Ry

     iteration #  6     ecut=   120.00 Ry     beta=0.70
     Davidson diagonalization with overlap
     ethr =  7.65E-06,  avg # of iterations =  1.0

     negative rho (up, down):  1.097E-04 0.000E+00

     total cpu time spent up to now is      331.8 secs

     total energy              =     -32.75117767 Ry
     Harris-Foulkes estimate   =     -32.75117841 Ry
     estimated scf accuracy    <       0.00000432 Ry

     iteration #  7     ecut=   120.00 Ry     beta=0.70
     Davidson diagonalization with overlap
     ethr =  6.18E-08,  avg # of iterations =  7.0

     negative rho (up, down):  1.102E-04 0.000E+00

     total cpu time spent up to now is      351.1 secs

     End of self-consistent calculation

          k = 0.0000 0.0000 0.0000 (710378 PWs)   bands (ev):

   -24.2929 -11.2771  -8.2752  -8.2752  -0.9944  -0.0298   0.2569   0.2608

     the Fermi energy is    -8.2103 ev

!    total energy              =     -32.75117809 Ry
     Harris-Foulkes estimate   =     -32.75117809 Ry
     estimated scf accuracy    <       0.00000002 Ry

     The total energy is the sum of the following terms:

     one-electron contribution =     -58.77551836 Ry
     hartree contribution      =      30.56374939 Ry
     xc contribution           =      -7.17869457 Ry
     ewald contribution        =       2.64827354 Ry
     smearing contrib. (-TS)   =      -0.00898808 Ry

     convergence has been achieved in   7 iterations

     Forces acting on atoms (Ry/au):

     atom    1 type  1   force =     0.06882436    0.00000000    0.00000000
     atom    2 type  2   force =    -0.06882436    0.00000000    0.00000000

     Total force =     0.097332     Total SCF correction =     0.000261

     number of scf cycles    =   2
     number of bfgs steps    =   1

     energy   old            =     -31.1020875587 Ry
     energy   new            =     -32.7511780879 Ry

     CASE: energy  _new < energy  _old

     new trust radius        =       0.0050500909 bohr
     new conv_thr            =       0.0000000688 Ry


ATOMIC_POSITIONS (bohr)
H       -0.494949909   0.000000000   0.000000000
O        1.454949909   0.000000000   0.000000000



     Writing output data file H2.save
     Check: negative starting charge=   -0.001194
     NEW-OLD atomic charge density approx. for the potential
     Check: negative starting charge=   -0.001194

     negative rho (up, down):  2.529E-04 0.000E+00

     total cpu time spent up to now is      379.9 secs

     per-process dynamical memory:   370.9 Mb

     Self-consistent Calculation

     iteration #  1     ecut=   120.00 Ry     beta=0.70
     Davidson diagonalization with overlap
     ethr =  1.00E-06,  avg # of iterations =  5.0

     negative rho (up, down):  1.421E-04 0.000E+00

     total cpu time spent up to now is      402.7 secs

     total energy              =     -32.75183166 Ry
     Harris-Foulkes estimate   =     -32.75184415 Ry
     estimated scf accuracy    <       0.00001764 Ry

     iteration #  2     ecut=   120.00 Ry     beta=0.70
     Davidson diagonalization with overlap
     ethr =  2.52E-07,  avg # of iterations =  2.0

     negative rho (up, down):  1.275E-04 0.000E+00

     total cpu time spent up to now is      419.1 secs

     total energy              =     -32.75183551 Ry
     Harris-Foulkes estimate   =     -32.75184124 Ry
     estimated scf accuracy    <       0.00001192 Ry

     iteration #  3     ecut=   120.00 Ry     beta=0.70
     Davidson diagonalization with overlap
     ethr =  1.70E-07,  avg # of iterations =  2.0

     negative rho (up, down):  1.232E-04 0.000E+00

     total cpu time spent up to now is      435.9 secs

     total energy              =     -32.75183722 Ry
     Harris-Foulkes estimate   =     -32.75183852 Ry
     estimated scf accuracy    <       0.00000843 Ry

     iteration #  4     ecut=   120.00 Ry     beta=0.70
     Davidson diagonalization with overlap
     ethr =  1.20E-07,  avg # of iterations =  1.0

     negative rho (up, down):  1.123E-04 0.000E+00

     total cpu time spent up to now is      451.2 secs

     total energy              =     -32.75183794 Ry
     Harris-Foulkes estimate   =     -32.75183808 Ry
     estimated scf accuracy    <       0.00000106 Ry

     iteration #  5     ecut=   120.00 Ry     beta=0.70
     Davidson diagonalization with overlap
     ethr =  1.51E-08,  avg # of iterations =  1.0

     negative rho (up, down):  1.105E-04 0.000E+00

     total cpu time spent up to now is      465.0 secs

     End of self-consistent calculation

          k = 0.0000 0.0000 0.0000 (710378 PWs)   bands (ev):

   -24.3291 -11.2928  -8.2832  -8.2832  -0.9729  -0.0294   0.2566   0.2608

     the Fermi energy is    -8.2183 ev

!    total energy              =     -32.75183800 Ry
     Harris-Foulkes estimate   =     -32.75183800 Ry
     estimated scf accuracy    <          2.9E-09 Ry

     The total energy is the sum of the following terms:

     one-electron contribution =     -58.82832681 Ry
     hartree contribution      =      30.58846170 Ry
     xc contribution           =      -7.18295607 Ry
     ewald contribution        =       2.67997127 Ry
     smearing contrib. (-TS)   =      -0.00898808 Ry

     convergence has been achieved in   5 iterations

     Forces acting on atoms (Ry/au):

     atom    1 type  1   force =     0.06174418    0.00000000    0.00000000
     atom    2 type  2   force =    -0.06174418    0.00000000    0.00000000

     Total force =     0.087319     Total SCF correction =     0.000056

     number of scf cycles    =   3
     number of bfgs steps    =   2

     energy   old            =     -32.7511780879 Ry
     energy   new            =     -32.7518379994 Ry

     CASE: energy  _new < energy  _old


     WARNING: bfgs curvature condition failed, Theta= 0.892
     new trust radius        =       0.0075751364 bohr
     new conv_thr            =       0.0000000066 Ry


ATOMIC_POSITIONS (bohr)
H       -0.487374773   0.000000000   0.000000000
O        1.447374773   0.000000000   0.000000000



     Writing output data file H2.save
     Check: negative starting charge=   -0.001194
     NEW-OLD atomic charge density approx. for the potential
     Check: negative starting charge=   -0.001195

     negative rho (up, down):  3.444E-04 0.000E+00

     total cpu time spent up to now is      494.7 secs

     per-process dynamical memory:   370.9 Mb

     Self-consistent Calculation

     iteration #  1     ecut=   120.00 Ry     beta=0.70
     Davidson diagonalization with overlap
     ethr =  1.00E-06,  avg # of iterations =  3.0

     negative rho (up, down):  1.640E-04 0.000E+00

     total cpu time spent up to now is      514.0 secs

     total energy              =     -32.75267393 Ry
     Harris-Foulkes estimate   =     -32.75270209 Ry
     estimated scf accuracy    <       0.00004031 Ry

     iteration #  2     ecut=   120.00 Ry     beta=0.70
     Davidson diagonalization with overlap
     ethr =  5.76E-07,  avg # of iterations =  2.0

     negative rho (up, down):  1.386E-04 0.000E+00

     total cpu time spent up to now is      528.5 secs

     total energy              =     -32.75268369 Ry
     Harris-Foulkes estimate   =     -32.75269564 Ry
     estimated scf accuracy    <       0.00002315 Ry

     iteration #  3     ecut=   120.00 Ry     beta=0.70
     Davidson diagonalization with overlap
     ethr =  3.31E-07,  avg # of iterations =  2.0

     negative rho (up, down):  1.192E-04 0.000E+00

     total cpu time spent up to now is      544.4 secs

     total energy              =     -32.75268840 Ry
     Harris-Foulkes estimate   =     -32.75268867 Ry
     estimated scf accuracy    <       0.00000073 Ry

     iteration #  4     ecut=   120.00 Ry     beta=0.70
     Davidson diagonalization with overlap
     ethr =  1.05E-08,  avg # of iterations =  2.0

     negative rho (up, down):  1.140E-04 0.000E+00

     total cpu time spent up to now is      559.7 secs

     total energy              =     -32.75268838 Ry
     Harris-Foulkes estimate   =     -32.75268911 Ry
     estimated scf accuracy    <       0.00000741 Ry

     iteration #  5     ecut=   120.00 Ry     beta=0.70
     Davidson diagonalization with overlap
     ethr =  1.05E-08,  avg # of iterations =  1.0

     negative rho (up, down):  1.115E-04 0.000E+00

     total cpu time spent up to now is      573.7 secs

     total energy              =     -32.75268881 Ry
     Harris-Foulkes estimate   =     -32.75268881 Ry
     estimated scf accuracy    <          8.4E-09 Ry

     iteration #  6     ecut=   120.00 Ry     beta=0.70
     Davidson diagonalization with overlap
     ethr =  1.19E-10,  avg # of iterations =  2.0

     negative rho (up, down):  1.111E-04 0.000E+00

     total cpu time spent up to now is      586.9 secs

     End of self-consistent calculation

          k = 0.0000 0.0000 0.0000 (710378 PWs)   bands (ev):

   -24.3833 -11.3155  -8.2939  -8.2939  -0.9420  -0.0286   0.2566   0.2609

     the Fermi energy is    -8.2291 ev

!    total energy              =     -32.75268881 Ry
     Harris-Foulkes estimate   =     -32.75268881 Ry
     estimated scf accuracy    <          5.9E-10 Ry

     The total energy is the sum of the following terms:

     one-electron contribution =     -58.90795360 Ry
     hartree contribution      =      30.62544850 Ry
     xc contribution           =      -7.18933448 Ry
     ewald contribution        =       2.72813885 Ry
     smearing contrib. (-TS)   =      -0.00898808 Ry

     convergence has been achieved in   6 iterations

     Forces acting on atoms (Ry/au):

     atom    1 type  1   force =     0.05053384    0.00000000    0.00000000
     atom    2 type  2   force =    -0.05053384    0.00000000    0.00000000

     Total force =     0.071466     Total SCF correction =     0.000048

     number of scf cycles    =   4
     number of bfgs steps    =   3

     energy   old            =     -32.7518379994 Ry
     energy   new            =     -32.7526888069 Ry

     CASE: energy  _new < energy  _old

     new trust radius        =       0.0113627046 bohr
     new conv_thr            =       0.0000000085 Ry


ATOMIC_POSITIONS (bohr)
H       -0.476012068   0.000000000   0.000000000
O        1.436012068   0.000000000   0.000000000



     Writing output data file H2.save
     Check: negative starting charge=   -0.001195
     NEW-OLD atomic charge density approx. for the potential
     Check: negative starting charge=   -0.001194

     negative rho (up, down):  4.911E-04 0.000E+00

     total cpu time spent up to now is      615.0 secs

     per-process dynamical memory:   370.9 Mb

     Self-consistent Calculation

     iteration #  1     ecut=   120.00 Ry     beta=0.70
     Davidson diagonalization with overlap
     ethr =  1.00E-06,  avg # of iterations =  5.0

     negative rho (up, down):  2.006E-04 0.000E+00

     total cpu time spent up to now is      636.2 secs

     total energy              =     -32.75360019 Ry
     Harris-Foulkes estimate   =     -32.75366746 Ry
     estimated scf accuracy    <       0.00009632 Ry

     iteration #  2     ecut=   120.00 Ry     beta=0.70
     Davidson diagonalization with overlap
     ethr =  1.38E-06,  avg # of iterations =  3.0

     negative rho (up, down):  1.581E-04 0.000E+00

     total cpu time spent up to now is      655.8 secs

     total energy              =     -32.75362362 Ry
     Harris-Foulkes estimate   =     -32.75365183 Ry
     estimated scf accuracy    <       0.00005387 Ry

     iteration #  3     ecut=   120.00 Ry     beta=0.70
     Davidson diagonalization with overlap
     ethr =  7.70E-07,  avg # of iterations =  2.0

     negative rho (up, down):  1.185E-04 0.000E+00

     total cpu time spent up to now is      675.2 secs

     total energy              =     -32.75363463 Ry
     Harris-Foulkes estimate   =     -32.75363513 Ry
     estimated scf accuracy    <       0.00000052 Ry

     iteration #  4     ecut=   120.00 Ry     beta=0.70
     Davidson diagonalization with overlap
     ethr =  7.36E-09,  avg # of iterations =  2.0

     negative rho (up, down):  1.167E-04 0.000E+00

     total cpu time spent up to now is      692.0 secs

     total energy              =     -32.75363465 Ry
     Harris-Foulkes estimate   =     -32.75363494 Ry
     estimated scf accuracy    <       0.00000202 Ry

     iteration #  5     ecut=   120.00 Ry     beta=0.70
     Davidson diagonalization with overlap
     ethr =  7.36E-09,  avg # of iterations =  1.0

     negative rho (up, down):  1.130E-04 0.000E+00

     total cpu time spent up to now is      707.9 secs

     total energy              =     -32.75363481 Ry
     Harris-Foulkes estimate   =     -32.75363482 Ry
     estimated scf accuracy    <       0.00000012 Ry

     iteration #  6     ecut=   120.00 Ry     beta=0.70
     Davidson diagonalization with overlap
     ethr =  1.68E-09,  avg # of iterations =  1.0

     negative rho (up, down):  1.123E-04 0.000E+00

     total cpu time spent up to now is      722.7 secs

     End of self-consistent calculation

          k = 0.0000 0.0000 0.0000 (710378 PWs)   bands (ev):

   -24.4671 -11.3496  -8.3107  -8.3107  -0.8975  -0.0274   0.2566   0.2611

     the Fermi energy is    -8.2458 ev

!    total energy              =     -32.75363481 Ry
     Harris-Foulkes estimate   =     -32.75363481 Ry
     estimated scf accuracy    <          4.9E-10 Ry

     The total energy is the sum of the following terms:

     one-electron contribution =     -59.02952769 Ry
     hartree contribution      =      30.68223922 Ry
     xc contribution           =      -7.19918077 Ry
     ewald contribution        =       2.80182250 Ry
     smearing contrib. (-TS)   =      -0.00898808 Ry

     convergence has been achieved in   6 iterations

     Forces acting on atoms (Ry/au):

     atom    1 type  1   force =     0.03242710    0.00000000    0.00000000
     atom    2 type  2   force =    -0.03242710    0.00000000    0.00000000

     Total force =     0.045859     Total SCF correction =     0.000030

     number of scf cycles    =   5
     number of bfgs steps    =   4

     energy   old            =     -32.7526888069 Ry
     energy   new            =     -32.7536348140 Ry

     CASE: energy  _new < energy  _old

     new trust radius        =       0.0170440570 bohr
     new conv_thr            =       0.0000000095 Ry


ATOMIC_POSITIONS (bohr)
H       -0.458968011   0.000000000   0.000000000
O        1.418968011   0.000000000   0.000000000



     Writing output data file H2.save
     Check: negative starting charge=   -0.001194
     NEW-OLD atomic charge density approx. for the potential
     Check: negative starting charge=   -0.001194

     negative rho (up, down):  7.238E-04 0.000E+00

     total cpu time spent up to now is      752.6 secs

     per-process dynamical memory:   370.9 Mb

     Self-consistent Calculation

     iteration #  1     ecut=   120.00 Ry     beta=0.70
     Davidson diagonalization with overlap
     ethr =  1.00E-06,  avg # of iterations =  4.0

     negative rho (up, down):  2.606E-04 0.000E+00

     total cpu time spent up to now is      777.9 secs

     total energy              =     -32.75415320 Ry
     Harris-Foulkes estimate   =     -32.75431007 Ry
     estimated scf accuracy    <       0.00022698 Ry

     iteration #  2     ecut=   120.00 Ry     beta=0.70
     Davidson diagonalization with overlap
     ethr =  3.24E-06,  avg # of iterations =  2.0

     negative rho (up, down):  1.904E-04 0.000E+00

     total cpu time spent up to now is      797.8 secs

     total energy              =     -32.75420838 Ry
     Harris-Foulkes estimate   =     -32.75427257 Ry
     estimated scf accuracy    <       0.00012094 Ry

     iteration #  3     ecut=   120.00 Ry     beta=0.70
     Davidson diagonalization with overlap
     ethr =  1.73E-06,  avg # of iterations =  2.0

     negative rho (up, down):  1.244E-04 0.000E+00

     total cpu time spent up to now is      814.9 secs

     total energy              =     -32.75423398 Ry
     Harris-Foulkes estimate   =     -32.75423437 Ry
     estimated scf accuracy    <       0.00000110 Ry

     iteration #  4     ecut=   120.00 Ry     beta=0.70
     Davidson diagonalization with overlap
     ethr =  1.58E-08,  avg # of iterations =  5.0

     negative rho (up, down):  1.216E-04 0.000E+00

     total cpu time spent up to now is      835.6 secs

     total energy              =     -32.75423413 Ry
     Harris-Foulkes estimate   =     -32.75423456 Ry
     estimated scf accuracy    <       0.00000268 Ry

     iteration #  5     ecut=   120.00 Ry     beta=0.70
     Davidson diagonalization with overlap
     ethr =  1.58E-08,  avg # of iterations =  1.0

     negative rho (up, down):  1.159E-04 0.000E+00

     total cpu time spent up to now is      854.0 secs

     total energy              =     -32.75423436 Ry
     Harris-Foulkes estimate   =     -32.75423441 Ry
     estimated scf accuracy    <       0.00000041 Ry

     iteration #  6     ecut=   120.00 Ry     beta=0.70
     Davidson diagonalization with overlap
     ethr =  5.84E-09,  avg # of iterations =  1.0

     negative rho (up, down):  1.146E-04 0.000E+00

     total cpu time spent up to now is      869.6 secs

     End of self-consistent calculation

          k = 0.0000 0.0000 0.0000 (710378 PWs)   bands (ev):

   -24.5983 -11.4003  -8.3364  -8.3364  -0.8357  -0.0256   0.2566   0.2603

     the Fermi energy is    -8.2715 ev

!    total energy              =     -32.75423439 Ry
     Harris-Foulkes estimate   =     -32.75423439 Ry
     estimated scf accuracy    <          1.2E-09 Ry

     The total energy is the sum of the following terms:

     one-electron contribution =     -59.21571070 Ry
     hartree contribution      =      30.76910912 Ry
     xc contribution           =      -7.21433880 Ry
     ewald contribution        =       2.91569408 Ry
     smearing contrib. (-TS)   =      -0.00898808 Ry

     convergence has been achieved in   6 iterations

     Forces acting on atoms (Ry/au):

     atom    1 type  1   force =     0.00212854    0.00000000    0.00000000
     atom    2 type  2   force =    -0.00212854    0.00000000    0.00000000

     Total force =     0.003010     Total SCF correction =     0.000047

     number of scf cycles    =   6
     number of bfgs steps    =   5

     energy   old            =     -32.7536348140 Ry
     energy   new            =     -32.7542343854 Ry

     CASE: energy  _new < energy  _old

     new trust radius        =       0.0011973798 bohr
     new conv_thr            =       0.0000000021 Ry


ATOMIC_POSITIONS (bohr)
H       -0.457770631   0.000000000   0.000000000
O        1.417770631   0.000000000   0.000000000



     Writing output data file H2.save
     Check: negative starting charge=   -0.001194
     NEW-OLD atomic charge density approx. for the potential
     Check: negative starting charge=   -0.001194

     negative rho (up, down):  1.382E-04 0.000E+00

     total cpu time spent up to now is      899.4 secs

     per-process dynamical memory:   370.9 Mb

     Self-consistent Calculation

     iteration #  1     ecut=   120.00 Ry     beta=0.70
     Davidson diagonalization with overlap
     ethr =  1.00E-06,  avg # of iterations =  2.0

     Threshold (ethr) on eigenvalues was too large:
     Diagonalizing with lowered threshold

     Davidson diagonalization with overlap
     ethr =  1.80E-08,  avg # of iterations =  1.0

     negative rho (up, down):  1.200E-04 0.000E+00

     total cpu time spent up to now is      929.0 secs

     total energy              =     -32.75423618 Ry
     Harris-Foulkes estimate   =     -32.75423702 Ry
     estimated scf accuracy    <       0.00000121 Ry

     iteration #  2     ecut=   120.00 Ry     beta=0.70
     Davidson diagonalization with overlap
     ethr =  1.73E-08,  avg # of iterations =  2.0

     negative rho (up, down):  1.176E-04 0.000E+00

     total cpu time spent up to now is      946.6 secs

     total energy              =     -32.75423647 Ry
     Harris-Foulkes estimate   =     -32.75423684 Ry
     estimated scf accuracy    <       0.00000075 Ry

     iteration #  3     ecut=   120.00 Ry     beta=0.70
     Davidson diagonalization with overlap
     ethr =  1.07E-08,  avg # of iterations =  2.0

     negative rho (up, down):  1.169E-04 0.000E+00

     total cpu time spent up to now is      964.7 secs

     total energy              =     -32.75423659 Ry
     Harris-Foulkes estimate   =     -32.75423664 Ry
     estimated scf accuracy    <       0.00000034 Ry

     iteration #  4     ecut=   120.00 Ry     beta=0.70
     Davidson diagonalization with overlap
     ethr =  4.92E-09,  avg # of iterations =  1.0

     negative rho (up, down):  1.151E-04 0.000E+00

     total cpu time spent up to now is      981.5 secs

     total energy              =     -32.75423662 Ry
     Harris-Foulkes estimate   =     -32.75423663 Ry
     estimated scf accuracy    <       0.00000009 Ry

     iteration #  5     ecut=   120.00 Ry     beta=0.70
     Davidson diagonalization with overlap
     ethr =  1.29E-09,  avg # of iterations =  1.0

     negative rho (up, down):  1.148E-04 0.000E+00

     total cpu time spent up to now is      997.6 secs

     End of self-consistent calculation

          k = 0.0000 0.0000 0.0000 (710378 PWs)   bands (ev):

   -24.6079 -11.4040  -8.3384  -8.3384  -0.8317  -0.0255   0.2565   0.2603

     the Fermi energy is    -8.2735 ev

!    total energy              =     -32.75423662 Ry
     Harris-Foulkes estimate   =     -32.75423662 Ry
     estimated scf accuracy    <          1.7E-10 Ry

     The total energy is the sum of the following terms:

     one-electron contribution =     -59.22905162 Ry
     hartree contribution      =      30.77539575 Ry
     xc contribution           =      -7.21544218 Ry
     ewald contribution        =       2.92384950 Ry
     smearing contrib. (-TS)   =      -0.00898808 Ry

     convergence has been achieved in   5 iterations

     Forces acting on atoms (Ry/au):

     atom    1 type  1   force =    -0.00014174    0.00000000    0.00000000
     atom    2 type  2   force =     0.00014174    0.00000000    0.00000000

     Total force =     0.000200     Total SCF correction =     0.000018

     bfgs converged in   7 scf cycles and   6 bfgs steps
     (criteria: energy <  1.0E-04, force <  1.0E-03)

     End of BFGS Geometry Optimization

     Final energy   =     -32.7542366231 Ry
Begin final coordinates

ATOMIC_POSITIONS (bohr)
H       -0.457770631   0.000000000   0.000000000
O        1.417770631   0.000000000   0.000000000
End final coordinates



     Writing output data file H2.save

     init_run     :     23.41s CPU     18.03s WALL (       1 calls)
     electrons    :   1420.02s CPU    834.61s WALL (       7 calls)
     update_pot   :     51.58s CPU     65.75s WALL (       6 calls)
     forces       :     56.63s CPU     45.57s WALL (       7 calls)

     Called by init_run:
     wfcinit      :      6.45s CPU      3.52s WALL (       1 calls)
     potinit      :      4.86s CPU      4.18s WALL (       1 calls)

     Called by electrons:
     c_bands      :    870.34s CPU    399.32s WALL (      43 calls)
     sum_band     :    335.77s CPU    221.23s WALL (      43 calls)
     v_of_rho     :     61.11s CPU     62.14s WALL (      49 calls)
     newd         :    125.49s CPU     94.61s WALL (      49 calls)
     mix_rho      :     35.81s CPU     37.65s WALL (      43 calls)

     Called by c_bands:
     init_us_2    :     13.37s CPU      4.94s WALL (      87 calls)
     regterg      :    863.57s CPU    393.41s WALL (      43 calls)

     Called by sum_band:
     sum_band:bec :      0.00s CPU      0.00s WALL (      43 calls)
     addusdens    :    177.65s CPU    111.40s WALL (      43 calls)

     Called by *egterg:
     h_psi        :    755.46s CPU    361.41s WALL (     192 calls)
     s_psi        :      9.25s CPU      2.94s WALL (     192 calls)
     g_psi        :      5.68s CPU      1.17s WALL (     148 calls)
     rdiaghg      :     26.05s CPU      6.54s WALL (     184 calls)

     Called by h_psi:
     add_vuspsi   :      1.84s CPU      1.65s WALL (     192 calls)

     General routines
     calbec       :      9.35s CPU      8.25s WALL (     263 calls)
     fft          :    272.46s CPU    182.02s WALL (     310 calls)
     fftw         :    744.47s CPU    367.81s WALL (    1246 calls)
     davcio       :      0.22s CPU      0.10s WALL (       7 calls)

     Parallel routines
     fft_scatter  :    561.07s CPU    264.40s WALL (    1556 calls)

     PWSCF        : 26m23.29s CPU    16m56.28s WALL


   This run was terminated on:  12:23:48  14Dec2016            

=------------------------------------------------------------------------------=
   JOB DONE.
=------------------------------------------------------------------------------=
