
     Program PWSCF v.5.1 starts on 13Dec2016 at 22:52:53 

     This program is part of the open-source Quantum ESPRESSO suite
     for quantum simulation of materials; please cite
         "P. Giannozzi et al., J. Phys.:Condens. Matter 21 395502 (2009);
          URL http://www.quantum-espresso.org", 
     in publications or presentations arising from this work. More details at
     http://www.quantum-espresso.org/quote

     Parallel version (MPI), running on     1 processors
     Waiting for input...
     Reading input from standard input
     Message from routine read_cards :
     DEPRECATED: no units specified in CELL_PARAMETERS card

     Current dimensions of program PWSCF are:
     Max number of different atomic species (ntypx) = 10
     Max number of k-points (npk) =  40000
     Max angular momentum in pseudopotentials (lmaxx) =  3
               file H.pz-rrkjus.UPF: wavefunction(s)  1S renormalized
               file O.pz-rrkjus.UPF: wavefunction(s)  2S renormalized

     gamma-point specific algorithms are used

     Subspace diagonalization in iterative solution of the eigenvalue problem:
     a serial algorithm will be used


     G-vector sticks info
     --------------------
     sticks:   dense  smooth     PW     G-vecs:    dense   smooth      PW
     Sum       61133   61133  15273             11365163 11365163 1420755
     Tot       30567   30567   7637



     bravais-lattice index     =            0
     lattice parameter (alat)  =      40.0000  a.u.
     unit-cell volume          =   64000.0000 (a.u.)^3
     number of atoms/cell      =            2
     number of atomic types    =            2
     number of electrons       =         7.00
     number of Kohn-Sham states=            8
     kinetic-energy cutoff     =     120.0000  Ry
     charge density cutoff     =     480.0000  Ry
     convergence threshold     =      1.0E-07
     mixing beta               =       0.7000
     number of iterations used =            8  plain     mixing
     Exchange-correlation      =  SLA  PZ   NOGX NOGC ( 1  1  0  0 0)
     nstep                     =           50


     celldm(1)=  40.000000  celldm(2)=   0.000000  celldm(3)=   0.000000
     celldm(4)=   0.000000  celldm(5)=   0.000000  celldm(6)=   0.000000

     crystal axes: (cart. coord. in units of alat)
               a(1) = (   1.000000   0.000000   0.000000 )  
               a(2) = (   0.000000   1.000000   0.000000 )  
               a(3) = (   0.000000   0.000000   1.000000 )  

     reciprocal axes: (cart. coord. in units 2 pi/alat)
               b(1) = (  1.000000  0.000000  0.000000 )  
               b(2) = (  0.000000  1.000000  0.000000 )  
               b(3) = (  0.000000  0.000000  1.000000 )  


     PseudoPot. # 1 for H  read from file:
     /home/fito/.qespresso/upf_files/H.pz-rrkjus.UPF
     MD5 check sum: c325bf28c048744aca8614a82587641e
     Pseudo is Ultrasoft, Zval =  1.0
     Generated by new atomic code, or converted to UPF format
     Using radial grid of 1061 points,  2 beta functions with: 
                l(1) =   0
                l(2) =   0
     Q(r) pseudized with 0 coefficients 


     PseudoPot. # 2 for O  read from file:
     /home/fito/.qespresso/upf_files/O.pz-rrkjus.UPF
     MD5 check sum: 24fb942a68ef5d262e498166c462ef4a
     Pseudo is Ultrasoft, Zval =  6.0
     Generated by new atomic code, or converted to UPF format
     Using radial grid of 1269 points,  4 beta functions with: 
                l(1) =   0
                l(2) =   0
                l(3) =   1
                l(4) =   1
     Q(r) pseudized with 0 coefficients 


     atomic species   valence    mass     pseudopotential
        H              1.00     1.00000     H ( 1.00)
        O              6.00    16.00000     O ( 1.00)

      8 Sym. Ops. (no inversion) found



   Cartesian axes

     site n.     atom                  positions (alat units)
         1           H   tau(   1) = (   0.0000000   0.0000000   0.0000000  )
         2           O   tau(   2) = (   0.0240000   0.0000000   0.0000000  )

     number of k points=     1  gaussian smearing, width (Ry)=  0.0100
                       cart. coord. in units 2pi/alat
        k(    1) = (   0.0000000   0.0000000   0.0000000), wk =   2.0000000

     Dense  grid:  5682582 G-vectors     FFT dimensions: ( 288, 288, 288)

     Largest allocated arrays     est. size (Mb)     dimensions
        Kohn-Sham Wavefunctions        86.72 Mb     (  710378,    8)
        NL pseudopotentials           108.40 Mb     (  710378,   10)
        Each V/rho on FFT grid        364.50 Mb     (23887872)
        Each G-vector array            43.35 Mb     ( 5682582)
        G-vector shells                 0.12 Mb     (   16214)
     Largest temporary arrays     est. size (Mb)     dimensions
        Auxiliary wavefunctions       173.43 Mb     (  710378,   32)
        Each subspace H/S matrix        0.01 Mb     (      32,   32)
        Each <psi_i|beta_j> matrix      0.00 Mb     (      10,    8)
        Arrays for rho mixing        2916.00 Mb     (23887872,    8)

     Initial potential from superposition of free atoms
     Check: negative starting charge=   -0.001196

     starting charge    6.90788, renormalised to    7.00000

     negative rho (up, down):  1.212E-03 0.000E+00
     Starting wfc are    5 randomized atomic wfcs +    3 random wfc

     total cpu time spent up to now is       41.2 secs

     Self-consistent Calculation

     iteration #  1     ecut=   120.00 Ry     beta=0.70
     Davidson diagonalization with overlap
     ethr =  1.00E-02,  avg # of iterations =  7.0

     negative rho (up, down):  4.247E-04 0.000E+00

     total cpu time spent up to now is      126.4 secs

     total energy              =     -30.87213775 Ry
     Harris-Foulkes estimate   =     -31.52076925 Ry
     estimated scf accuracy    <       0.86817122 Ry

     iteration #  2     ecut=   120.00 Ry     beta=0.70
     Davidson diagonalization with overlap
     ethr =  1.00E-02,  avg # of iterations =  2.0

     negative rho (up, down):  2.390E-04 0.000E+00

     total cpu time spent up to now is      197.4 secs

     total energy              =     -31.06857015 Ry
     Harris-Foulkes estimate   =     -31.15369111 Ry
     estimated scf accuracy    <       0.14885162 Ry

     iteration #  3     ecut=   120.00 Ry     beta=0.70
     Davidson diagonalization with overlap
     ethr =  2.13E-03,  avg # of iterations =  2.0

     negative rho (up, down):  1.446E-04 0.000E+00

     total cpu time spent up to now is      270.3 secs

     total energy              =     -31.10084387 Ry
     Harris-Foulkes estimate   =     -31.10329978 Ry
     estimated scf accuracy    <       0.00437539 Ry

     iteration #  4     ecut=   120.00 Ry     beta=0.70
     Davidson diagonalization with overlap
     ethr =  6.25E-05,  avg # of iterations = 16.0

     negative rho (up, down):  1.440E-04 0.000E+00

     total cpu time spent up to now is      404.9 secs

     total energy              =     -31.10185939 Ry
     Harris-Foulkes estimate   =     -31.10212665 Ry
     estimated scf accuracy    <       0.00093932 Ry

     iteration #  5     ecut=   120.00 Ry     beta=0.70
     Davidson diagonalization with overlap
     ethr =  1.34E-05,  avg # of iterations =  8.0

     negative rho (up, down):  1.443E-04 0.000E+00

     total cpu time spent up to now is      510.1 secs

     total energy              =     -31.10188816 Ry
     Harris-Foulkes estimate   =     -31.10229332 Ry
     estimated scf accuracy    <       0.00356204 Ry

     iteration #  6     ecut=   120.00 Ry     beta=0.70
     Davidson diagonalization with overlap
     ethr =  1.34E-05,  avg # of iterations =  1.0

     negative rho (up, down):  1.508E-04 0.000E+00

     total cpu time spent up to now is      618.7 secs

     total energy              =     -31.10208721 Ry
     Harris-Foulkes estimate   =     -31.10208270 Ry
     estimated scf accuracy    <       0.00000138 Ry

     iteration #  7     ecut=   120.00 Ry     beta=0.70
