LAMMPS (17 Nov 2015)
WARNING: OMP_NUM_THREADS environment is not set. (../comm.cpp:90)
  using 1 OpenMP thread(s) per MPI task
units           real
atom_style      full
boundary        f f f
dielectric      1
special_bonds   lj/coul 0.0 0.0 1.0

pair_style      lj/charmm/coul/charmm 9 10.00000
bond_style      harmonic
angle_style     harmonic
dihedral_style  charmm
improper_style  none
kspace_style    none

read_data       data.tripeptide
  orthogonal box = (-1000 -1000 -1000) to (1000 1000 1000)
  1 by 1 by 1 MPI processor grid
  reading atoms ...
  54 atoms
  scanning bonds ...
  3 = max bonds/atom
  scanning angles ...
  6 = max angles/atom
  scanning dihedrals ...
  17 = max dihedrals/atom
  reading bonds ...
  54 bonds
  reading angles ...
  93 angles
  reading dihedrals ...
  134 dihedrals
  4 = max # of 1-2 neighbors
  9 = max # of 1-3 neighbors
  13 = max # of special neighbors

pair_modify     mix geometric
neighbor        2.0 multi
neigh_modify    every 2 delay 4 check yes

timestep	1.0 # 1 fms - recommended

thermo		1 # every 100 steps
thermo_style 	custom step temp pe ke etotal press vol ebond eangle edihed eimp epair ecoul
thermo_modify	line one format float %14.6f
variable        input index in.tripeptide
variable        sname index tripeptide

dump		1 all xyz 100 tripeptide.min.xyz
dump_modify	1 element H C N O

min_style	cg
minimize	0.001 .01 4000 8000
WARNING: Resetting reneighboring criteria during minimization (../min.cpp:168)
Neighbor list info ...
  1 neighbor list requests
  update every 1 steps, delay 0 steps, check yes
  max neighbors/atom: 2000, page size: 100000
  master list distance cutoff = 12
  ghost atom cutoff = 12
  binsize = 6 -> bins = 334 334 334
Memory usage per processor = 163.467 Mbytes
Step Temp PotEng KinEng TotEng Press Volume E_bond E_angle E_dihed E_impro E_pair E_coul 
       0       0.000000      71.839196       0.000000      71.839196       0.002522 8000000000.000000       7.484108       6.311105       7.832160       0.000000      50.211823      -9.461408 
       1       0.000000      64.636765       0.000000      64.636765       0.002362 8000000000.000000       4.953223       5.858866       7.786219       0.000000      46.038456     -10.216192 
       2       0.000000      61.650643       0.000000      61.650643       0.002117 8000000000.000000       5.358153       7.955112       7.774632       0.000000      40.562746     -11.869404 
       3       0.000000      57.084800       0.000000      57.084800       0.001675 8000000000.000000       6.378041      12.481489       7.732631       0.000000      30.492639     -16.353079 
       4       0.000000      54.917731       0.000000      54.917731       0.001297 8000000000.000000       7.534636      14.554323       7.681477       0.000000      25.147295     -18.398735 
       5       0.000000      52.986035       0.000000      52.986035       0.000714 8000000000.000000       8.534196      16.322914       7.635848       0.000000      20.493078     -19.847986 
       6       0.000000      51.955130       0.000000      51.955130       0.000330 8000000000.000000       9.630145      16.165017       7.594203       0.000000      18.565766     -20.310267 
       7       0.000000      51.183265       0.000000      51.183265       0.000136 8000000000.000000      10.301424      16.369090       7.575927       0.000000      16.936825     -20.707744 
       8       0.000000      50.477140       0.000000      50.477140       0.000159 8000000000.000000      10.197038      16.652846       7.593680       0.000000      16.033576     -20.392287 
       9       0.000000      49.876308       0.000000      49.876308       0.000219 8000000000.000000       9.046322      17.403369       7.629326       0.000000      15.797290     -20.118589 
      10       0.000000      49.409378       0.000000      49.409378       0.000177 8000000000.000000       8.989098      17.471384       7.639437       0.000000      15.309459     -20.162898 
      11       0.000000      49.151907       0.000000      49.151907       0.000068 8000000000.000000       9.666561      16.963951       7.646499       0.000000      14.874896     -20.265690 
      12       0.000000      48.919291       0.000000      48.919291      -0.000073 8000000000.000000      10.023467      16.816497       7.655419       0.000000      14.423908     -20.525675 
      13       0.000000      48.631013       0.000000      48.631013      -0.000131 8000000000.000000      10.042520      16.871426       7.680217       0.000000      14.036850     -20.920967 
      14       0.000000      48.384700       0.000000      48.384700      -0.000094 8000000000.000000       9.837118      17.103815       7.700799       0.000000      13.742968     -21.211936 
      15       0.000000      48.142037       0.000000      48.142037      -0.000059 8000000000.000000       9.510501      17.315046       7.702197       0.000000      13.614293     -21.294882 
      16       0.000000      47.957260       0.000000      47.957260      -0.000095 8000000000.000000       9.512541      17.242200       7.673667       0.000000      13.528852     -21.572422 
      17       0.000000      47.821080       0.000000      47.821080      -0.000152 8000000000.000000       9.644252      17.099051       7.639515       0.000000      13.438262     -21.701716 
      18       0.000000      47.682731       0.000000      47.682731      -0.000156 8000000000.000000       9.788452      16.797553       7.607142       0.000000      13.489584     -21.781422 
      19       0.000000      47.562408       0.000000      47.562408      -0.000133 8000000000.000000       9.801720      16.547876       7.558930       0.000000      13.653882     -21.760361 
      20       0.000000      47.427874       0.000000      47.427874      -0.000090 8000000000.000000       9.379694      16.631671       7.502007       0.000000      13.914503     -21.735432 
      21       0.000000      47.338883       0.000000      47.338883      -0.000046 8000000000.000000       9.384315      16.434633       7.454293       0.000000      14.065643     -21.735842 
      22       0.000000      47.202296       0.000000      47.202296      -0.000011 8000000000.000000       9.237180      16.462223       7.351815       0.000000      14.151078     -21.763921 
      23       0.000000      47.091801       0.000000      47.091801      -0.000023 8000000000.000000       9.181679      16.411185       7.276680       0.000000      14.222258     -21.818383 
      24       0.000000      46.989613       0.000000      46.989613      -0.000038 8000000000.000000       9.348989      16.243763       7.211761       0.000000      14.185100     -21.863085 
      25       0.000000      46.867780       0.000000      46.867780      -0.000040 8000000000.000000       9.415370      16.284362       7.094971       0.000000      14.073076     -21.899696 
      26       0.000000      46.741533       0.000000      46.741533      -0.000046 8000000000.000000       9.359369      16.515324       6.966837       0.000000      13.900003     -21.936191 
      27       0.000000      46.653548       0.000000      46.653548      -0.000026 8000000000.000000       9.159581      16.705275       6.877424       0.000000      13.911268     -21.942746 
      28       0.000000      46.551837       0.000000      46.551837       0.000049 8000000000.000000       9.072318      16.883524       6.758672       0.000000      13.837323     -22.013602 
      29       0.000000      46.491324       0.000000      46.491324       0.000075 8000000000.000000       9.176267      16.929366       6.672650       0.000000      13.713040     -22.175256 
      30       0.000000      46.429619       0.000000      46.429619       0.000041 8000000000.000000       9.314061      16.942465       6.579956       0.000000      13.593137     -22.310806 
      31       0.000000      46.379041       0.000000      46.379041       0.000007 8000000000.000000       9.383992      17.011065       6.497067       0.000000      13.486917     -22.367176 
      32       0.000000      46.335736       0.000000      46.335736      -0.000001 8000000000.000000       9.390229      17.044827       6.417422       0.000000      13.483258     -22.339765 
Loop time of 0.00591111 on 1 procs for 32 steps with 54 atoms

67.7% CPU use with 1 MPI tasks x 1 OpenMP threads

Minimization stats:
  Stopping criterion = energy tolerance
  Energy initial, next-to-last, final = 
         71.8391955099      46.3790410769      46.3357357123
  Force two-norm initial, final = 148.319 7.10402
  Force max component initial, final = 32.9245 2.58254
  Final line search alpha, max atom move = 0.012606 0.0325554
  Iterations, force evaluations = 32 64

MPI task timing breakdown:
Section |  min time  |  avg time  |  max time  |%varavg| %total
---------------------------------------------------------------
Pair    | 0.0027201  | 0.0027201  | 0.0027201  |   0.0 | 46.02
Bond    | 0.0021276  | 0.0021276  | 0.0021276  |   0.0 | 35.99
Neigh   | 0          | 0          | 0          |   0.0 |  0.00
Comm    | 4.7684e-06 | 4.7684e-06 | 4.7684e-06 |   0.0 |  0.08
Output  | 0.00043678 | 0.00043678 | 0.00043678 |   0.0 |  7.39
Modify  | 0          | 0          | 0          |   0.0 |  0.00
Other   |            | 0.0006218  |            |       | 10.52

Nlocal:    54 ave 54 max 54 min
Histogram: 1 0 0 0 0 0 0 0 0 0
Nghost:    0 ave 0 max 0 min
Histogram: 1 0 0 0 0 0 0 0 0 0
Neighs:    1274 ave 1274 max 1274 min
Histogram: 1 0 0 0 0 0 0 0 0 0

Total # of neighbors = 1274
Ave neighs/atom = 23.5926
Ave special neighs/atom = 5.44444
Neighbor list builds = 0
Dangerous builds = 0

reset_timestep	0
fix		1 all nvt temp 300.0 300.0 100.0
fix		2 all momentum 100 linear 1 1 1 angular
run 		10000
Neighbor list info ...
  1 neighbor list requests
  update every 2 steps, delay 4 steps, check yes
  max neighbors/atom: 2000, page size: 100000
  master list distance cutoff = 12
  ghost atom cutoff = 12
  binsize = 6 -> bins = 334 334 334
Memory usage per processor = 162.342 Mbytes
Step Temp PotEng KinEng TotEng Press Volume E_bond E_angle E_dihed E_impro E_pair E_coul 
       0       0.000000      46.335736       0.000000      46.335736      -0.000001 8000000000.000000       9.390229      17.044827       6.417422       0.000000      13.483258     -22.339765 
       1       0.022852      46.331984       0.003610      46.335594       0.000002 8000000000.000000       9.383325      17.045207       6.416871       0.000000      13.486580     -22.340233 
       2       0.078948      46.322842       0.012472      46.335314       0.000010 8000000000.000000       9.365467      17.046489       6.415214       0.000000      13.495672     -22.341793 
       3       0.143172      46.312547       0.022619      46.335166       0.000020 8000000000.000000       9.342931      17.048957       6.412433       0.000000      13.508227     -22.344837 
       4       0.200972      46.303505       0.031750      46.335255       0.000030 8000000000.000000       9.320937      17.052705       6.408503       0.000000      13.521360     -22.349805 
       5       0.257271      46.294778       0.040644      46.335422       0.000038 8000000000.000000       9.301419      17.057236       6.403399       0.000000      13.532724     -22.356944 
       6       0.322829      46.284453       0.051001      46.335455       0.000040 8000000000.000000       9.284661      17.061168       6.397103       0.000000      13.541521     -22.366103 
       7       0.395673      46.272837       0.062510      46.335347       0.000038 8000000000.000000       9.271994      17.062206       6.389607       0.000000      13.549030     -22.376642 
       8       0.460139      46.262618       0.072694      46.335312       0.000032 8000000000.000000       9.265846      17.057437       6.380918       0.000000      13.558417     -22.387499 
       9       0.504671      46.255798       0.079729      46.335528       0.000026 8000000000.000000       9.266959      17.043906       6.371067       0.000000      13.573866     -22.397396 
      10       0.536926      46.251095       0.084825      46.335920       0.000020 8000000000.000000       9.272339      17.019358       6.360106       0.000000      13.599292     -22.405136 
      11       0.577348      46.245025       0.091211      46.336237       0.000019 8000000000.000000       9.276966      16.982921       6.348110       0.000000      13.637028     -22.409884 
      12       0.637312      46.235652       0.100684      46.336336       0.000023 8000000000.000000       9.278058      16.935520       6.335180       0.000000      13.686894     -22.411371 
      13       0.706262      46.224778       0.111577      46.336355       0.000030 8000000000.000000       9.277552      16.879878       6.321433       0.000000      13.745915     -22.409935 
      14       0.762584      46.216082       0.120475      46.336557       0.000040 8000000000.000000       9.280206      16.820091       6.307002       0.000000      13.808783     -22.406421 
      15       0.796212      46.211255       0.125788      46.337043       0.000048 8000000000.000000       9.289353      16.760902       6.292026       0.000000      13.868974     -22.401940 
      16       0.817848      46.208438       0.129206      46.337644       0.000053 8000000000.000000       9.304659      16.706892       6.276649       0.000000      13.920237     -22.397577 
      17       0.845123      46.204609       0.133515      46.338124       0.000053 8000000000.000000       9.323746      16.661802       6.261015       0.000000      13.958046     -22.394120 
      18       0.882274      46.199067       0.139384      46.338451       0.000048 8000000000.000000       9.345108      16.628119       6.245264       0.000000      13.980575     -22.391904 
      19       0.916708      46.194002       0.144824      46.338826       0.000038 8000000000.000000       9.368600      16.606967       6.229530       0.000000      13.988905     -22.390798 
      20       0.935703      46.191613       0.147825      46.339438       0.000026 8000000000.000000       9.393025      16.598255       6.213936       0.000000      13.986397     -22.390337 
      21       0.942999      46.191262       0.148978      46.340240       0.000016 8000000000.000000       9.414186      16.600998       6.198592       0.000000      13.977486     -22.389944 
      22       0.955376      46.190065       0.150933      46.340998       0.000008 8000000000.000000       9.426487      16.613694       6.183585       0.000000      13.966298     -22.389160 
      23       0.982939      46.186283       0.155288      46.341571       0.000006 8000000000.000000       9.427119      16.634657       6.168987       0.000000      13.955521     -22.387803 
      24       1.016172      46.181537       0.160538      46.342075       0.000007 8000000000.000000       9.418602      16.662223       6.154847       0.000000      13.945865     -22.386009 
      25       1.035322      46.179196       0.163563      46.342759       0.000011 8000000000.000000       9.406950      16.694808       6.141204       0.000000      13.936234     -22.384139 
      26       1.031963      46.180684       0.163033      46.343717       0.000015 8000000000.000000       9.397238      16.730841       6.128090       0.000000      13.924516     -22.382590 
      27       1.018420      46.183884       0.160893      46.344777       0.000016 8000000000.000000       9.390963      16.768664       6.115536       0.000000      13.908722     -22.381577 
      28       1.014422      46.185435       0.160261      46.345696       0.000013 8000000000.000000       9.387312      16.806488       6.103583       0.000000      13.888052     -22.380965 
      29       1.026205      46.184307       0.162123      46.346430       0.000004 8000000000.000000       9.386061      16.842464       6.092283       0.000000      13.863499     -22.380223 
      30       1.041540      46.182628       0.164546      46.347173      -0.000009 8000000000.000000       9.388321      16.874873       6.081706       0.000000      13.837728     -22.378519 
      31       1.045580      46.182943       0.165184      46.348127      -0.000024 8000000000.000000       9.394309      16.902417       6.071937       0.000000      13.814280     -22.374922 
      32       1.038676      46.185175       0.164093      46.349268      -0.000038 8000000000.000000       9.401224      16.924507       6.063075       0.000000      13.796369     -22.368664 
      33       1.035614      46.186772       0.163609      46.350382      -0.000047 8000000000.000000       9.404377      16.941464       6.055230       0.000000      13.785702     -22.359361 
      34       1.047802      46.185785       0.165535      46.351320      -0.000052 8000000000.000000       9.401027      16.954535       6.048513       0.000000      13.781710     -22.347140 
      35       1.069738      46.183174       0.169000      46.352174      -0.000051 8000000000.000000       9.393004      16.965698       6.043031       0.000000      13.781441     -22.332611 
      36       1.085900      46.181619       0.171554      46.353173      -0.000047 8000000000.000000       9.385294      16.977268       6.038873       0.000000      13.780184     -22.316753 
      37       1.090172      46.182181       0.172229      46.354410      -0.000041 8000000000.000000       9.382008      16.991419       6.036108       0.000000      13.772647     -22.300698 
      38       1.095039      46.182740       0.172997      46.355737      -0.000038 8000000000.000000       9.383816      17.009742       6.034774       0.000000      13.754406     -22.285493 
      39       1.119435      46.180079       0.176852      46.356930      -0.000038 8000000000.000000       9.389070      17.032919       6.034885       0.000000      13.723204     -22.271900 
      40       1.168693      46.173317       0.184634      46.357951      -0.000043 8000000000.000000       9.396650      17.060567       6.036426       0.000000      13.679675     -22.260306 
      41       1.229139      46.164811       0.194183      46.358994      -0.000052 8000000000.000000       9.406931      17.091243       6.039354       0.000000      13.627284     -22.250755 
      42       1.283176      46.157550       0.202720      46.360270      -0.000062 8000000000.000000       9.419864      17.122610       6.043603       0.000000      13.571473     -22.243094 
      43       1.327543      46.152047       0.209729      46.361776      -0.000071 8000000000.000000       9.432925      17.151743       6.049083       0.000000      13.518295     -22.237170 
      44       1.374349      46.146190       0.217124      46.363314      -0.000077 8000000000.000000       9.441983      17.175572       6.055686       0.000000      13.472949     -22.233010 
      45       1.434696      46.138069       0.226658      46.364727      -0.000077 8000000000.000000       9.444775      17.191366       6.063290       0.000000      13.438639     -22.230932 
      46       1.504527      46.128390       0.237690      46.366079      -0.000072 8000000000.000000       9.443403      17.197184       6.071766       0.000000      13.416037     -22.231534 
      47       1.569101      46.119683       0.247891      46.367575      -0.000064 8000000000.000000       9.443068      17.192157       6.080990       0.000000      13.403469     -22.235569 
      48       1.620393      46.113316       0.255994      46.369310      -0.000054 8000000000.000000       9.448200      17.176550       6.090848       0.000000      13.397719     -22.243744 
      49       1.666631      46.107860       0.263299      46.371159      -0.000047 8000000000.000000       9.459810      17.151609       6.101245       0.000000      13.395196     -22.256489 
      50       1.722528      46.100782       0.272130      46.372913      -0.000043 8000000000.000000       9.476330      17.119269       6.112110       0.000000      13.393074     -22.273793 
      51       1.791378      46.091514       0.283007      46.374521      -0.000044 8000000000.000000       9.496272      17.081801       6.123396       0.000000      13.390046     -22.295141 
      52       1.859764      46.082336       0.293811      46.376147      -0.000050 8000000000.000000       9.519302      17.041529       6.135080       0.000000      13.386425     -22.319587 
      53       1.911158      46.076047       0.301930      46.377977      -0.000057 8000000000.000000       9.544610      17.000654       6.147159       0.000000      13.383623     -22.345931 
      54       1.943076      46.073034       0.306973      46.380007      -0.000064 8000000000.000000       9.568990      16.961210       6.159639       0.000000      13.383194     -22.372940 
      55       1.968602      46.071037       0.311005      46.382042      -0.000068 8000000000.000000       9.587568      16.925107       6.172526       0.000000      13.385836     -22.399549 
      56       2.001123      46.067776       0.316143      46.383919      -0.000066 8000000000.000000       9.597093      16.894179       6.185812       0.000000      13.390692     -22.424987 
      57       2.039996      46.063391       0.322284      46.385676      -0.000060 8000000000.000000       9.598553      16.870167       6.199470       0.000000      13.395202     -22.448802 
      58       2.073046      46.059987       0.327506      46.387493      -0.000049 8000000000.000000       9.596359      16.854594       6.213445       0.000000      13.395590     -22.470784 
      59       2.091974      46.058977       0.330496      46.389473      -0.000037 8000000000.000000       9.594909      16.848546       6.227652       0.000000      13.387871     -22.490825 
      60       2.102133      46.059420       0.332101      46.391521      -0.000027 8000000000.000000       9.595913      16.852421       6.241984       0.000000      13.369103     -22.508764 
      61       2.115417      46.059258       0.334200      46.393458      -0.000020 8000000000.000000       9.598736      16.865692       6.256316       0.000000      13.338514     -22.524275 
      62       2.135148      46.057916       0.337317      46.395233      -0.000018 8000000000.000000       9.602544      16.886758       6.270514       0.000000      13.298100     -22.536850 
      63       2.151194      46.057132       0.339852      46.396984      -0.000020 8000000000.000000       9.607303      16.912933       6.284438       0.000000      13.252458     -22.545899 
      64       2.151479      46.058977       0.339897      46.398873      -0.000025 8000000000.000000       9.612541      16.940639       6.297947       0.000000      13.207849     -22.550932 
      65       2.136850      46.063317       0.337586      46.400903      -0.000031 8000000000.000000       9.615817      16.965833       6.310903       0.000000      13.170764     -22.551778 
      66       2.122288      46.067621       0.335285      46.402906      -0.000033 8000000000.000000       9.613419      16.984630       6.323175       0.000000      13.146397     -22.548749 
      67       2.122994      46.069340       0.335397      46.404736      -0.000032 8000000000.000000       9.603200      16.994011       6.334639       0.000000      13.137490     -22.542715 
      68       2.140868      46.068208       0.338221      46.406429      -0.000025 8000000000.000000       9.586771      16.992410       6.345187       0.000000      13.143841     -22.535021 
      69       2.165858      46.065985       0.342169      46.408154      -0.000015 8000000000.000000       9.568627      16.980020       6.354735       0.000000      13.162602     -22.527289 
      70       2.189405      46.064134       0.345889      46.410022      -0.000004 8000000000.000000       9.552932      16.958715       6.363226       0.000000      13.189261     -22.521127 
      71       2.213898      46.062217       0.349758      46.411975       0.000007 8000000000.000000       9.540981      16.931602       6.370633       0.000000      13.219002     -22.517839 
      72       2.247716      46.058771       0.355101      46.413872       0.000013 8000000000.000000       9.531426      16.902358       6.376966       0.000000      13.248021     -22.518214 
      73       2.292760      46.053454       0.362217      46.415671       0.000016 8000000000.000000       9.522261      16.874527       6.382262       0.000000      13.274404     -22.522450 
      74       2.339937      46.047816       0.369670      46.417486       0.000014 8000000000.000000       9.511999      16.850959       6.386581       0.000000      13.298277     -22.530234 
      75       2.378275      46.043731       0.375727      46.419458       0.000009 8000000000.000000       9.498959      16.833523       6.389995       0.000000      13.321254     -22.540932 
      76       2.407084      46.041312       0.380278      46.421590       0.000005 8000000000.000000       9.480228      16.823101       6.392573       0.000000      13.345410     -22.553811 
      77       2.436935      46.038753       0.384994      46.423747       0.000003 8000000000.000000       9.452401      16.819808       6.394369       0.000000      13.372176     -22.568220 
      78       2.478180      46.034299       0.391510      46.425809       0.000006 8000000000.000000       9.414051      16.823295       6.395413       0.000000      13.401540     -22.583679 
      79       2.529922      46.028124       0.399684      46.427808       0.000014 8000000000.000000       9.367588      16.833011       6.395709       0.000000      13.431816     -22.599868 
      80       2.581508      46.022052       0.407834      46.429886       0.000026 8000000000.000000       9.318453      16.848326       6.395227       0.000000      13.460044     -22.616529 
      81       2.624180      46.017559       0.414576      46.432135       0.000039 8000000000.000000       9.272243      16.868482       6.393917       0.000000      13.482917     -22.633327 
      82       2.659399      46.014362       0.420140      46.434502       0.000052 8000000000.000000       9.232318      16.892421       6.391705       0.000000      13.497919     -22.649744 
      83       2.695051      46.011093       0.425772      46.436865       0.000061 8000000000.000000       9.199691      16.918572       6.388505       0.000000      13.504325     -22.665040 
      84       2.735081      46.007081       0.432096      46.439177       0.000065 8000000000.000000       9.174459      16.944708       6.384228       0.000000      13.503685     -22.678333 
      85       2.775295      46.003076       0.438449      46.441525       0.000063 8000000000.000000       9.156697      16.967979       6.378786       0.000000      13.499614     -22.688774 
      86       2.810020      46.000077       0.443935      46.444012       0.000058 8000000000.000000       9.145914      16.985178       6.372102       0.000000      13.496883     -22.695805 
      87       2.841129      45.997788       0.448850      46.446638       0.000051 8000000000.000000       9.140281      16.993252       6.364120       0.000000      13.500135     -22.699367 
      88       2.878291      45.994577       0.454721      46.449298       0.000045 8000000000.000000       9.137249      16.989931       6.354811       0.000000      13.512586     -22.700028 
      89       2.929699      45.989063       0.462843      46.451905       0.000042 8000000000.000000       9.135471      16.974315       6.344180       0.000000      13.535096     -22.698977 
      90       2.993716      45.981542       0.472956      46.454498       0.000043 8000000000.000000       9.136170      16.947204       6.332273       0.000000      13.565895     -22.697854 
      91       3.060721      45.973655       0.483542      46.457197       0.000046 8000000000.000000       9.142389      16.911054       6.319177       0.000000      13.601035     -22.698475 
      92       3.122783      45.966729       0.493346      46.460076       0.000051 8000000000.000000       9.156724      16.869548       6.305015       0.000000      13.635442     -22.702496 
      93       3.180189      45.960676       0.502416      46.463092       0.000056 8000000000.000000       9.179570      16.826882       6.289949       0.000000      13.664275     -22.711127 
      94       3.238090      45.954581       0.511563      46.466144       0.000058 8000000000.000000       9.209223      16.786987       6.274168       0.000000      13.684203     -22.724954 
      95       3.298310      45.948129       0.521077      46.469206       0.000055 8000000000.000000       9.243144      16.752878       6.257881       0.000000      13.694227     -22.743912 
      96       3.356356      45.942093       0.530247      46.472340       0.000049 8000000000.000000       9.278736      16.726303       6.241306       0.000000      13.695749     -22.767466 
      97       3.406730      45.937419       0.538205      46.475624       0.000041 8000000000.000000       9.313034      16.707739       6.224657       0.000000      13.691989     -22.794817 
      98       3.449733      45.934048       0.544999      46.479047       0.000032 8000000000.000000       9.342355      16.696659       6.208134       0.000000      13.686900     -22.825123 
      99       3.491290      45.930959       0.551564      46.482523       0.000026 8000000000.000000       9.363119      16.691974       6.191916       0.000000      13.683951     -22.857645 
     100       3.535946      45.927372       0.558619      46.485991       0.000025 8000000000.000000       9.373584      16.692465       6.176160       0.000000      13.685163     -22.891769 
     101       3.581329      45.923693       0.565789      46.489482       0.000028 8000000000.000000       9.374914      16.697099       6.160995       0.000000      13.690686     -22.926965 
     102       3.620616      45.921086       0.571995      46.493082       0.000036 8000000000.000000       9.370412      16.705144       6.146531       0.000000      13.699000     -22.962609 
     103       3.649920      45.920201       0.576625      46.496826       0.000046 8000000000.000000       9.363544      16.716106       6.132856       0.000000      13.707695     -22.997824 
     104       3.672367      45.920490       0.580171      46.500661       0.000057 8000000000.000000       9.356424      16.729491       6.120037       0.000000      13.714538     -23.031440 
     105       3.694391      45.920854       0.583651      46.504505       0.000065 8000000000.000000       9.349726      16.744621       6.108124       0.000000      13.718382     -23.062068 
     106       3.718921      45.920814       0.587526      46.508340       0.000069 8000000000.000000       9.343404      16.760502       6.097151       0.000000      13.719758     -23.088234 
     107       3.743808      45.920769       0.591458      46.512227       0.000068 8000000000.000000       9.336988      16.775866       6.087139       0.000000      13.720776     -23.108631 
     108       3.766570      45.921164       0.595054      46.516218       0.000063 8000000000.000000       9.329262      16.789406       6.078101       0.000000      13.724395     -23.122397 
     109       3.788965      45.921700       0.598592      46.520292       0.000056 8000000000.000000       9.318234      16.800141       6.070049       0.000000      13.733277     -23.129312 
     110       3.815619      45.921585       0.602803      46.524388       0.000050 8000000000.000000       9.302152      16.807830       6.062992       0.000000      13.748611     -23.129867 
     111       3.848365      45.920498       0.607976      46.528474       0.000046 8000000000.000000       9.281028      16.813202       6.056943       0.000000      13.769325     -23.125211 
     112       3.883267      45.919109       0.613490      46.532599       0.000044 8000000000.000000       9.257246      16.817941       6.051915       0.000000      13.792007     -23.116899 
     113       3.914336      45.918435       0.618398      46.536833       0.000046 8000000000.000000       9.234577      16.824401       6.047917       0.000000      13.811540     -23.106566 
     114       3.939761      45.918773       0.622415      46.541188       0.000049 8000000000.000000       9.216413      16.835094       6.044953       0.000000      13.822313     -23.095617 
     115       3.963516      45.919436       0.626168      46.545604       0.000051 8000000000.000000       9.204661      16.852100       6.043017       0.000000      13.819658     -23.085003 
     116       3.990741      45.919554       0.630469      46.550022       0.000050 8000000000.000000       9.199831      16.876551       6.042094       0.000000      13.801077     -23.075153 
     117       4.022577      45.918952       0.635498      46.554451       0.000046 8000000000.000000       9.201605      16.908319       6.042161       0.000000      13.766867     -23.066079 
     118       4.056372      45.918111       0.640837      46.558949       0.000037 8000000000.000000       9.208979      16.945980       6.043182       0.000000      13.719970     -23.057582 
     119       4.090372      45.917342       0.646209      46.563551       0.000025 8000000000.000000       9.220076      16.987049       6.045115       0.000000      13.665102     -23.049498 
     120       4.126589      45.916294       0.651931      46.568224       0.000012 8000000000.000000       9.232494      17.028409       6.047909       0.000000      13.607482     -23.041867 
     121       4.168045      45.914435       0.658480      46.572915      -0.000000 8000000000.000000       9.244545      17.066841       6.051509       0.000000      13.551539     -23.034981 
     122       4.213868      45.911900       0.665719      46.577620      -0.000010 8000000000.000000       9.256502      17.099544       6.055862       0.000000      13.499993     -23.029294 
     123       4.258635      45.909606       0.672792      46.582398      -0.000015 8000000000.000000       9.270643      17.124529       6.060917       0.000000      13.453518     -23.025237 
     124       4.297354      45.908395       0.678909      46.587303      -0.000016 8000000000.000000       9.289863      17.140842       6.066632       0.000000      13.411058     -23.023005 
     125       4.330524      45.908171       0.684149      46.592320      -0.000014 8000000000.000000       9.315992      17.148556       6.072981       0.000000      13.370641     -23.022404 
     126       4.363384      45.908037       0.689340      46.597377      -0.000012 8000000000.000000       9.349098      17.148584       6.079950       0.000000      13.330405     -23.022810 
     127       4.400263      45.907267       0.695167      46.602433      -0.000011 8000000000.000000       9.387877      17.142367       6.087543       0.000000      13.289480     -23.023278 
     128       4.440696      45.905965       0.701554      46.607519      -0.000012 8000000000.000000       9.430187      17.131552       6.095782       0.000000      13.248444     -23.022781 
     129       4.481747      45.904662       0.708039      46.612701      -0.000017 8000000000.000000       9.472989      17.117763       6.104710       0.000000      13.209200     -23.020513 
     130       4.523402      45.903377       0.714620      46.617998      -0.000024 8000000000.000000       9.512138      17.102515       6.114386       0.000000      13.174338     -23.016174 
     131       4.570118      45.901358       0.722001      46.623358      -0.000032 8000000000.000000       9.542983      17.087267       6.124885       0.000000      13.146223     -23.010133 
     132       4.626336      45.897848       0.730882      46.628731      -0.000040 8000000000.000000       9.561926      17.073529       6.136289       0.000000      13.126104     -23.003434 
     133       4.691271      45.892991       0.741141      46.634132      -0.000044 8000000000.000000       9.567813      17.062927       6.148684       0.000000      13.113567     -22.997636 
     134       4.759498      45.887721       0.751919      46.639641      -0.000044 8000000000.000000       9.561915      17.057150       6.162142       0.000000      13.106514     -22.994512 
     135       4.827093      45.882713       0.762598      46.645312      -0.000039 8000000000.000000       9.546540      17.057744       6.176722       0.000000      13.101707     -22.995707 
     136       4.896231      45.877595       0.773521      46.651116      -0.000030 8000000000.000000       9.523582      17.065825       6.192459       0.000000      13.095729     -23.002434 
     137       4.972682      45.871379       0.785599      46.656978      -0.000019 8000000000.000000       9.494180      17.081779       6.209362       0.000000      13.086059     -23.015307 
     138       5.058892      45.863650       0.799219      46.662869      -0.000008 8000000000.000000       9.459278      17.105034       6.227410       0.000000      13.071928     -23.034330 
     139       5.150600      45.855139       0.813707      46.668846       0.000002 8000000000.000000       9.419956      17.133968       6.246557       0.000000      13.054659     -23.059063 
     140       5.240907      45.847017       0.827974      46.674991       0.000010 8000000000.000000       9.376943      17.165981       6.266720       0.000000      13.037372     -23.088869 
     141       5.326922      45.839750       0.841563      46.681313       0.000016 8000000000.000000       9.330090      17.197727       6.287787       0.000000      13.024146     -23.123173 
     142       5.411071      45.832887       0.854857      46.687744       0.000022 8000000000.000000       9.278905      17.225489       6.309609       0.000000      13.018885     -23.161612 
     143       5.495538      45.826016       0.868201      46.694217       0.000027 8000000000.000000       9.224148      17.245667       6.332004       0.000000      13.024197     -23.204053 
     144       5.576673      45.819729       0.881019      46.700748       0.000035 8000000000.000000       9.169050      17.255292       6.354757       0.000000      13.040630     -23.250442 
     145       5.646571      45.815355       0.892062      46.707417       0.000046 8000000000.000000       9.118781      17.252484       6.377626       0.000000      13.066465     -23.300561 
     146       5.700617      45.813664       0.900600      46.714264       0.000059 8000000000.000000       9.078461      17.236741       6.400347       0.000000      13.098115     -23.353764 
     147       5.742430      45.814025       0.907206      46.721231       0.000074 8000000000.000000       9.051366      17.208987       6.422643       0.000000      13.131028     -23.408797 
     148       5.780203      45.815034       0.913173      46.728208       0.000088 8000000000.000000       9.038666      17.171337       6.444233       0.000000      13.160798     -23.463778 
     149       5.818248      45.815968       0.919184      46.735152       0.000100 8000000000.000000       9.040310      17.126649       6.464844       0.000000      13.184166     -23.516380 
     150       5.853247      45.817410       0.924713      46.742124       0.000108 8000000000.000000       9.055603      17.077978       6.484227       0.000000      13.199603     -23.564173 
     151       5.879491      45.820350       0.928859      46.749210       0.000110 8000000000.000000       9.082755      17.028102       6.502166       0.000000      13.207327     -23.605037 
     152       5.897080      45.824780       0.931638      46.756417       0.000108 8000000000.000000       9.118297      16.979238       6.518497       0.000000      13.208748     -23.637538 
     153       5.913504      45.829426       0.934233      46.763659       0.000101 8000000000.000000       9.157747      16.933007       6.533108       0.000000      13.205565     -23.661166 
     154       5.936639      45.832963       0.937888      46.770851       0.000092 8000000000.000000       9.197607      16.890596       6.545951       0.000000      13.198809     -23.676369 
     155       5.967188      45.835296       0.942714      46.778010       0.000083 8000000000.000000       9.237067      16.852992       6.557037       0.000000      13.188200     -23.684376 
     156       5.999401      45.837437       0.947803      46.785240       0.000075 8000000000.000000       9.277785      16.821184       6.566431       0.000000      13.172036     -23.686865 
     157       6.028989      45.840119       0.952477      46.792596       0.000069 8000000000.000000       9.321920      16.796227       6.574246       0.000000      13.147727     -23.685535 
     158       6.059247      45.842802       0.957258      46.800060       0.000065 8000000000.000000       9.370263      16.779148       6.580625       0.000000      13.112767     -23.681756 
     159       6.097825      45.844163       0.963352      46.807515       0.000062 8000000000.000000       9.421975      16.770757       6.585733       0.000000      13.065698     -23.676540 
     160       6.147167      45.843778       0.971147      46.814925       0.000057 8000000000.000000       9.475622      16.771396       6.589740       0.000000      13.007019     -23.670482 
     161       6.200185      45.842850       0.979523      46.822373       0.000051 8000000000.000000       9.529887      16.780730       6.592810       0.000000      12.939423     -23.663971 
     162       6.246625      45.843116       0.986860      46.829976       0.000042 8000000000.000000       9.583053      16.797640       6.595086       0.000000      12.867336     -23.657474 
     163       6.283330      45.845095       0.992659      46.837754       0.000030 8000000000.000000       9.632224      16.820305       6.596689       0.000000      12.795877     -23.651797 
     164       6.317015      45.847627       0.997981      46.845608       0.000017 8000000000.000000       9.673856      16.846464       6.597712       0.000000      12.729596     -23.648190 
     165       6.356426      45.849223       1.004207      46.853429       0.000005 8000000000.000000       9.705771      16.873856       6.598224       0.000000      12.671371     -23.648239 
     166       6.402787      45.849692       1.011531      46.861223      -0.000006 8000000000.000000       9.728875      16.900723       6.598270       0.000000      12.621824     -23.653559 
     167       6.449333      45.850212       1.018885      46.869097      -0.000014 8000000000.000000       9.746708      16.926240       6.597876       0.000000      12.579388     -23.665374 
     168       6.490261      45.851789       1.025350      46.877139      -0.000019 8000000000.000000       9.762976      16.950733       6.597054       0.000000      12.541026     -23.684108 
     169       6.528474      45.853924       1.031387      46.885311      -0.000021 8000000000.000000       9.779200      16.975597       6.595799       0.000000      12.503328     -23.709121 
     170       6.572886      45.855094       1.038404      46.893497      -0.000021 8000000000.000000       9.794445      17.002891       6.594094       0.000000      12.463664     -23.738707 
     171       6.628205      45.854498       1.047143      46.901641      -0.000020 8000000000.000000       9.806857      17.034720       6.591915       0.000000      12.421007     -23.770343 
     172       6.689143      45.853051       1.056770      46.909822      -0.000020 8000000000.000000       9.815032      17.072593       6.589231       0.000000      12.376196     -23.801148 
     173       6.746219      45.852382       1.065787      46.918170      -0.000021 8000000000.000000       9.817843      17.116946       6.586014       0.000000      12.331580     -23.828424 
     174       6.796950      45.852920       1.073802      46.926722      -0.000024 8000000000.000000       9.813479      17.166993       6.582244       0.000000      12.290205     -23.850118 
     175       6.849648      45.853250       1.082127      46.935378      -0.000027 8000000000.000000       9.799567      17.220948       6.577918       0.000000      12.254817     -23.865104 
     176       6.914953      45.851566       1.092445      46.944010      -0.000030 8000000000.000000       9.774967      17.276525       6.573055       0.000000      12.227019     -23.873210 
     177       6.994051      45.847673       1.104941      46.952614      -0.000032 8000000000.000000       9.741627      17.331525       6.567698       0.000000      12.206823     -23.875009 
     178       7.076444      45.843354       1.117957      46.961312      -0.000031 8000000000.000000       9.704403      17.384306       6.561921       0.000000      12.192723     -23.871452 
     179       7.149621      45.840706       1.129518      46.970224      -0.000027 8000000000.000000       9.668631      17.433985       6.555820       0.000000      12.182270     -23.863475 
     180       7.209835      45.840305       1.139031      46.979336      -0.000021 8000000000.000000       9.637544      17.480327       6.549510       0.000000      12.172924     -23.851724 
     181       7.262201      45.841213       1.147304      46.988517      -0.000014 8000000000.000000       9.611779      17.523401       6.543111       0.000000      12.162922     -23.836480 
     182       7.310814      45.842688       1.154984      46.997672      -0.000007 8000000000.000000       9.590961      17.563162       6.536741       0.000000      12.151824     -23.817817 
     183       7.351137      45.845488       1.161354      47.006842      -0.000001 8000000000.000000       9.575311      17.599110       6.530500       0.000000      12.140567     -23.795936 
     184       7.374219      45.851146       1.165001      47.016147       0.000003 8000000000.000000       9.565493      17.630173       6.524466       0.000000      12.131014     -23.771528 
     185       7.378337      45.859974       1.165651      47.025625       0.000004 8000000000.000000       9.561259      17.654868       6.518688       0.000000      12.125159     -23.746030 
     186       7.374318      45.870148       1.165016      47.035165       0.000003 8000000000.000000       9.560995      17.671704       6.513197       0.000000      12.124252     -23.721637 
     187       7.377258      45.879125       1.165481      47.044605       0.000000 8000000000.000000       9.563273      17.679689       6.508003       0.000000      12.128160     -23.701042 
     188       7.392586      45.886005       1.167902      47.053908      -0.000003 8000000000.000000       9.568997      17.678772       6.503108       0.000000      12.135128     -23.686949 
     189       7.411330      45.892330       1.170864      47.063194      -0.000007 8000000000.000000       9.581700      17.670051       6.498511       0.000000      12.142069     -23.681496 
     190       7.419744      45.900422       1.172193      47.072615      -0.000010 8000000000.000000       9.605277      17.655660       6.494214       0.000000      12.145271     -23.685762 
     191       7.412866      45.911079       1.171106      47.082185      -0.000014 8000000000.000000       9.641132      17.638358       6.490219       0.000000      12.141369     -23.699497 
     192       7.397492      45.923094       1.168678      47.091771      -0.000018 8000000000.000000       9.687361      17.620929       6.486536       0.000000      12.128267     -23.721182 
     193       7.382216      45.934979       1.166264      47.101243      -0.000023 8000000000.000000       9.740471      17.605576       6.483174       0.000000      12.105758     -23.748377 
     194       7.366747      45.946798       1.163820      47.110618      -0.000030 8000000000.000000       9.797554      17.593468       6.480150       0.000000      12.075626     -23.778276 
     195       7.343220      45.959925       1.160103      47.120028      -0.000038 8000000000.000000       9.856669      17.584581       6.477486       0.000000      12.041189     -23.808293 
     196       7.307934      45.975026       1.154529      47.129555      -0.000049 8000000000.000000       9.915547      17.577851       6.475214       0.000000      12.006415     -23.836528 
     197       7.269437      45.990672       1.148447      47.139119      -0.000062 8000000000.000000       9.970827      17.571602       6.473373       0.000000      11.974870     -23.861985 
     198       7.242502      46.004367       1.144192      47.148559      -0.000075 8000000000.000000      10.019428      17.564105       6.472019       0.000000      11.948815     -23.884504 
     199       7.233744      46.015009       1.142808      47.157817      -0.000089 8000000000.000000      10.060966      17.554113       6.471219       0.000000      11.928711     -23.904447 
     200       7.234790      46.024042       1.142973      47.167016      -0.000101 8000000000.000000      10.098498      17.541207       6.471050       0.000000      11.913287     -23.922253 
     201       7.231223      46.033925       1.142410      47.176335      -0.000112 8000000000.000000      10.136314      17.525873       6.471598       0.000000      11.900140     -23.938028 
     202       7.218106      46.045489       1.140338      47.185826      -0.000121 8000000000.000000      10.176546      17.509316       6.472950       0.000000      11.886677     -23.951306 
     203       7.205376      46.057034       1.138326      47.195360      -0.000129 8000000000.000000      10.217649      17.493096       6.475190       0.000000      11.871099     -23.961085 
     204       7.207488      46.066122       1.138660      47.204783      -0.000135 8000000000.000000      10.255924      17.478738       6.478388       0.000000      11.853072     -23.966126 
     205       7.229115      46.072014       1.142077      47.214091      -0.000141 8000000000.000000      10.288143      17.467412       6.482599       0.000000      11.833860     -23.965437 
     206       7.262749      46.076053       1.147390      47.223443      -0.000146 8000000000.000000      10.312535      17.459790       6.487857       0.000000      11.815871     -23.958749 
     207       7.300200      46.079673       1.153307      47.232980      -0.000150 8000000000.000000      10.327624      17.456084       6.494173       0.000000      11.801792     -23.946839 
     208       7.343914      46.082465       1.160213      47.242678      -0.000154 8000000000.000000      10.331051      17.456225       6.501540       0.000000      11.793649     -23.931529 
     209       7.404344      46.082627       1.169760      47.252387      -0.000156 8000000000.000000      10.320486      17.460097       6.509934       0.000000      11.792110     -23.915368 
     210       7.485997      46.079370       1.182660      47.262030      -0.000155 8000000000.000000      10.296034      17.467737       6.519322       0.000000      11.796277     -23.901048 
     211       7.578495      46.074440       1.197273      47.271713      -0.000153 8000000000.000000      10.261350      17.479407       6.529660       0.000000      11.804023     -23.890742 
     212       7.663956      46.070855       1.210774      47.281629      -0.000148 8000000000.000000      10.221674      17.495527       6.540902       0.000000      11.812752     -23.885567 
     213       7.733581      46.070078       1.221774      47.291851      -0.000139 8000000000.000000      10.180260      17.516475       6.552996       0.000000      11.820346     -23.885342 
     214       7.795151      46.070741       1.231501      47.302242      -0.000129 8000000000.000000      10.136507      17.542356       6.565886       0.000000      11.825991     -23.888664 
     215       7.862858      46.070408       1.242197      47.312606      -0.000116 8000000000.000000      10.087503      17.572787       6.579511       0.000000      11.830607     -23.893362 
     216       7.940415      46.068447       1.254450      47.322897      -0.000101 8000000000.000000      10.031192      17.606746       6.593811       0.000000      11.836698     -23.897127 
     217       8.015809      46.066902       1.266361      47.333263      -0.000086 8000000000.000000       9.967934      17.642569       6.608724       0.000000      11.847675     -23.898137 
     218       8.073391      46.068413       1.275458      47.343871      -0.000070 8000000000.000000       9.899327      17.678067       6.624192       0.000000      11.866827     -23.895511 
     219       8.109611      46.073533       1.281180      47.354713      -0.000055 8000000000.000000       9.826325      17.710755       6.640160       0.000000      11.896292     -23.889467 
     220       8.134918      46.080432       1.285178      47.365610      -0.000040 8000000000.000000       9.749390      17.738144       6.656578       0.000000      11.936319     -23.881146 
     221       8.160301      46.087217       1.289188      47.376406      -0.000026 8000000000.000000       9.670709      17.758048       6.673399       0.000000      11.985062     -23.872173 
     222       8.184519      46.094123       1.293014      47.387137      -0.000013 8000000000.000000       9.595743      17.768843       6.690573       0.000000      12.038965     -23.864086 
     223       8.197099      46.102975       1.295002      47.397977      -0.000002 8000000000.000000       9.531674      17.769619       6.708044       0.000000      12.093639     -23.857836 
     224       8.193723      46.114547       1.294468      47.409015       0.000007 8000000000.000000       9.483620      17.760204       6.725741       0.000000      12.144982     -23.853497 
     225       8.185689      46.126938       1.293199      47.420137       0.000015 8000000000.000000       9.452089      17.741066       6.743572       0.000000      12.190212     -23.850300 
     226       8.191194      46.137068       1.294069      47.431136       0.000020 8000000000.000000       9.434049      17.713123       6.761422       0.000000      12.228473     -23.846980 
     227       8.216822      46.143826       1.298118      47.441944       0.000024 8000000000.000000       9.426309      17.677514       6.779155       0.000000      12.260849     -23.842312 
     228       8.249425      46.149446       1.303268      47.452714       0.000027 8000000000.000000       9.427711      17.635368       6.796610       0.000000      12.289757     -23.835667 
     229       8.267859      46.157484       1.306181      47.463665       0.000028 8000000000.000000       9.438261      17.587630       6.813619       0.000000      12.317975     -23.827396 
     230       8.262328      46.169533       1.305307      47.474840       0.000027 8000000000.000000       9.456943      17.534972       6.830005       0.000000      12.347613     -23.818886 
     231       8.240923      46.184143       1.301925      47.486068       0.000026 8000000000.000000       9.481340      17.477823       6.845601       0.000000      12.379378     -23.812276 
     232       8.217390      46.198943       1.298207      47.497151       0.000024 8000000000.000000       9.509840      17.416512       6.860250       0.000000      12.412342     -23.809895 
     233       8.195110      46.213388       1.294687      47.508076       0.000021 8000000000.000000       9.543838      17.351451       6.873817       0.000000      12.444283     -23.813602 
     234       8.165842      46.228946       1.290064      47.519010       0.000018 8000000000.000000       9.586953      17.283323       6.886195       0.000000      12.472476     -23.824240 
     235       8.124113      46.246611       1.283471      47.530082       0.000015 8000000000.000000       9.641432      17.213175       6.897309       0.000000      12.494696     -23.841369 
     236       8.079497      46.264796       1.276423      47.541219       0.000013 8000000000.000000       9.705152      17.142411       6.907119       0.000000      12.510114     -23.863354 
     237       8.051020      46.280288       1.271924      47.552212       0.000012 8000000000.000000       9.772216      17.072666       6.915618       0.000000      12.519788     -23.887788 
     238       8.048568      46.291430       1.271536      47.562967       0.000012 8000000000.000000       9.836453      17.005600       6.922833       0.000000      12.526545     -23.912111 
     239       8.061945      46.299976       1.273650      47.573625       0.000015 8000000000.000000       9.894233      16.942647       6.928815       0.000000      12.534281     -23.934261 
     240       8.070688      46.309403       1.275031      47.584434       0.000019 8000000000.000000       9.944100      16.884812       6.933633       0.000000      12.546858     -23.953147 
     241       8.064899      46.321373       1.274116      47.595489       0.000025 8000000000.000000       9.984460      16.832579       6.937370       0.000000      12.566963     -23.968828 
     242       8.054888      46.334098       1.272535      47.606633       0.000030 8000000000.000000      10.012724      16.785999       6.940112       0.000000      12.595263     -23.982352 
     243       8.059350      46.344411       1.273240      47.617651       0.000036 8000000000.000000      10.027314      16.744929       6.941943       0.000000      12.630225     -23.995232 
     244       8.085741      46.351094       1.277409      47.628503       0.000041 8000000000.000000      10.030229      16.709412       6.942938       0.000000      12.668515     -24.008830 
     245       8.124596      46.355828       1.283548      47.639375       0.000046 8000000000.000000      10.026741      16.679967       6.943160       0.000000      12.705960     -24.023804 
     246       8.162991      46.360849       1.289613      47.650462       0.000049 8000000000.000000      10.021717      16.657696       6.942653       0.000000      12.738783     -24.039780 
     247       8.200609      46.366197       1.295556      47.661753       0.000051 8000000000.000000      10.015870      16.644135       6.941447       0.000000      12.764744     -24.055386 
     248       8.249250      46.369823       1.303241      47.673064       0.000053 8000000000.000000      10.005573      16.640887       6.939555       0.000000      12.783809     -24.068633 
     249       8.316020      46.370464       1.313789      47.684253       0.000055 8000000000.000000       9.986249      16.649136       6.936980       0.000000      12.798099     -24.077555 
     250       8.390014      46.369944       1.325479      47.695423       0.000058 8000000000.000000       9.955821      16.669219       6.933716       0.000000      12.811188     -24.080831 
     251       8.449122      46.371986       1.334817      47.706803       0.000061 8000000000.000000       9.915010      16.700383       6.929753       0.000000      12.826841     -24.078316 
     252       8.480573      46.378713       1.339786      47.718499       0.000066 8000000000.000000       9.865070      16.740840       6.925076       0.000000      12.847727     -24.071211 
     253       8.492796      46.388642       1.341717      47.730359       0.000071 8000000000.000000       9.806372      16.788108       6.919672       0.000000      12.874489     -24.061815 
     254       8.505398      46.398421       1.343708      47.742129       0.000076 8000000000.000000       9.739904      16.839521       6.913529       0.000000      12.905466     -24.052945 
     255       8.528238      46.406401       1.347316      47.753717       0.000079 8000000000.000000       9.669898      16.892741       6.906643       0.000000      12.937119     -24.047203 
     256       8.552508      46.414128       1.351150      47.765278       0.000081 8000000000.000000       9.603976      16.946089       6.899023       0.000000      12.965040     -24.046300 
     257       8.563022      46.424209       1.352811      47.777021       0.000082 8000000000.000000       9.549675      16.998572       6.890697       0.000000      12.985264     -24.050650 
     258       8.557062      46.437095       1.351870      47.788965       0.000081 8000000000.000000       9.510248      17.049658       6.881723       0.000000      12.995466     -24.059356 
     259       8.548112      46.450460       1.350456      47.800916       0.000079 8000000000.000000       9.483727      17.098883       6.872186       0.000000      12.995665     -24.070576 
     260       8.550483      46.461860       1.350830      47.812690       0.000077 8000000000.000000       9.465991      17.145492       6.862197       0.000000      12.988180     -24.082168 
     261       8.562846      46.471543       1.352783      47.824326       0.000076 8000000000.000000       9.454594      17.188230       6.851891       0.000000      12.976827     -24.092404 
     262       8.569970      46.482123       1.353909      47.836032       0.000076 8000000000.000000       9.449719      17.225379       6.841416       0.000000      12.965609     -24.100554 
     263       8.560588      46.495526       1.352427      47.847953       0.000077 8000000000.000000       9.452127      17.255056       6.830929       0.000000      12.957414     -24.107068 
     264       8.540996      46.510659       1.349332      47.859990       0.000077 8000000000.000000       9.461252      17.275651       6.820580       0.000000      12.953175     -24.113382 
     265       8.528472      46.524559       1.347353      47.871912       0.000077 8000000000.000000       9.476076      17.286298       6.810513       0.000000      12.951672     -24.121393 
     266       8.531345      46.535803       1.347807      47.883609       0.000074 8000000000.000000       9.497661      17.287197       6.800854       0.000000      12.950091     -24.132743 
     267       8.538295      46.546324       1.348905      47.895229       0.000069 8000000000.000000       9.529798      17.279646       6.791714       0.000000      12.945166     -24.148133 
     268       8.529487      46.559493       1.347513      47.907006       0.000061 8000000000.000000       9.576067      17.265759       6.783183       0.000000      12.934484     -24.166945 
     269       8.497649      46.576515       1.342483      47.918998       0.000052 8000000000.000000       9.635728      17.247944       6.775333       0.000000      12.917510     -24.187293 
     270       8.456063      46.595113       1.335914      47.931026       0.000042 8000000000.000000       9.702510      17.228323       6.768219       0.000000      12.896060     -24.206472 
     271       8.425251      46.611821       1.331046      47.942867       0.000033 8000000000.000000       9.767683      17.208295       6.761883       0.000000      12.873960     -24.221733 
     272       8.413611      46.625292       1.329207      47.954499       0.000027 8000000000.000000       9.824520      17.188381       6.756349       0.000000      12.856042     -24.231113 
     273       8.413289      46.636960       1.329156      47.966116       0.000025 8000000000.000000       9.870160      17.168385       6.751632       0.000000      12.846783     -24.234062 
     274       8.414581      46.648541       1.329360      47.977901       0.000026 8000000000.000000       9.903959      17.147801       6.747731       0.000000      12.849050     -24.231680 
     275       8.420897      46.659468       1.330358      47.989826       0.000029 8000000000.000000       9.925217      17.126314       6.744631       0.000000      12.863306     -24.226457 
     276       8.446082      46.667365       1.334337      48.001701       0.000035 8000000000.000000       9.933336      17.104214       6.742300       0.000000      12.887514     -24.221617 
     277       8.496777      46.671075       1.342346      48.013421       0.000040 8000000000.000000       9.930108      17.082551       6.740698       0.000000      12.917718     -24.220247 
     278       8.560441      46.672707       1.352404      48.025111       0.000044 8000000000.000000       9.920820      17.062972       6.739777       0.000000      12.949139     -24.224494 
     279       8.613998      46.676152       1.360865      48.037017       0.000046 8000000000.000000       9.911928      17.047262       6.739490       0.000000      12.977472     -24.235054 
     280       8.645030      46.683473       1.365767      48.049240       0.000047 8000000000.000000       9.906863      17.036784       6.739797       0.000000      13.000030     -24.251104 
     281       8.662993      46.693025       1.368605      48.061630       0.000047 8000000000.000000       9.903950      17.032010       6.740666       0.000000      13.016399     -24.270685 
     282       8.688564      46.701300       1.372645      48.073945       0.000047 8000000000.000000       9.898484      17.032355       6.742076       0.000000      13.028384     -24.291396 
     283       8.732859      46.706466       1.379643      48.086108       0.000049 8000000000.000000       9.886850      17.036338       6.744013       0.000000      13.039265     -24.311184 
     284       8.788665      46.709814       1.388459      48.098274       0.000054 8000000000.000000       9.868767      17.042022       6.746465       0.000000      13.052560     -24.328971 
     285       8.841572      46.713831       1.396818      48.110648       0.000060 8000000000.000000       9.846088      17.047565       6.749425       0.000000      13.070752     -24.344883 
     286       8.886851      46.719277       1.403971      48.123247       0.000067 8000000000.000000       9.820389      17.051702       6.752881       0.000000      13.094305     -24.360093 
     287       8.932159      46.724774       1.411129      48.135903       0.000073 8000000000.000000       9.792564      17.054020       6.756818       0.000000      13.121373     -24.376220 
     288       8.983691      46.729196       1.419270      48.148466       0.000077 8000000000.000000       9.764742      17.054949       6.761219       0.000000      13.148286     -24.394511 
     289       9.033194      46.733901       1.427090      48.160991       0.000078 8000000000.000000       9.741704      17.055477       6.766062       0.000000      13.170657     -24.415113 
     290       9.062265      46.741989       1.431683      48.173672       0.000074 8000000000.000000       9.729183      17.056721       6.771319       0.000000      13.184766     -24.436654 
     291       9.060606      46.755195       1.431421      48.186616       0.000066 8000000000.000000       9.729941      17.059498       6.776959       0.000000      13.188797     -24.456306 
     292       9.038477      46.771772       1.427925      48.199697       0.000057 8000000000.000000       9.741265      17.064065       6.782957       0.000000      13.183485     -24.470336 
     293       9.019307      46.787781       1.424897      48.212677       0.000048 8000000000.000000       9.756464      17.070103       6.789300       0.000000      13.171913     -24.475001 
     294       9.019869      46.800460       1.424985      48.225445       0.000041 8000000000.000000       9.769067      17.076909       6.795993       0.000000      13.158491     -24.467521 
     295       9.038533      46.810180       1.427934      48.238114       0.000037 8000000000.000000       9.775985      17.083705       6.803057       0.000000      13.147432     -24.446858 
     296       9.062551      46.819165       1.431728      48.250894       0.000036 8000000000.000000       9.777371      17.089942       6.810527       0.000000      13.141326     -24.413989 
     297       9.085017      46.828597       1.435278      48.263874       0.000037 8000000000.000000       9.774450      17.095461       6.818451       0.000000      13.140235     -24.371678 
     298       9.112026      46.837389       1.439545      48.276933       0.000039 8000000000.000000       9.768484      17.100553       6.826881       0.000000      13.141471     -24.323863 
     299       9.152708      46.843951       1.445972      48.289922       0.000038 8000000000.000000       9.761858      17.105839       6.835863       0.000000      13.140391     -24.274662 
     300       9.205357      46.848562       1.454289      48.302851       0.000034 8000000000.000000       9.759310      17.111998       6.845444       0.000000      13.131810     -24.227452 
     301       9.256597      46.853505       1.462384      48.315889       0.000026 8000000000.000000       9.766755      17.119444       6.855668       0.000000      13.111638     -24.184265 
     302       9.295318      46.860677       1.468502      48.329178       0.000013 8000000000.000000       9.787806      17.128049       6.866584       0.000000      13.078239     -24.145652 
     303       9.325913      46.869335       1.473335      48.342670      -0.000002 8000000000.000000       9.820982      17.137042       6.878237       0.000000      13.033076     -24.111025 
     304       9.365534      46.876581       1.479594      48.356176      -0.000017 8000000000.000000       9.860376      17.145128       6.890663       0.000000      12.980415     -24.079345 
     305       9.427505      46.880185       1.489385      48.369570      -0.000030 8000000000.000000       9.899334      17.150807       6.903880       0.000000      12.926164     -24.049911 
     306       9.508196      46.880798       1.502133      48.382930      -0.000039 8000000000.000000       9.933924      17.152774       6.917879       0.000000      12.876221     -24.022977 
     307       9.590946      46.881256       1.515206      48.396461      -0.000044 8000000000.000000       9.963470      17.150290       6.932614       0.000000      12.834882     -23.999979 
     308       9.662331      46.883797       1.526483      48.410280      -0.000044 8000000000.000000       9.988611      17.143413       6.947996       0.000000      12.803776     -23.983291 
     309       9.723314      46.888192       1.536118      48.424309      -0.000043 8000000000.000000      10.009609      17.133038       6.963890       0.000000      12.781656     -23.975589 
     310       9.784315      46.892623       1.545755      48.438377      -0.000042 8000000000.000000      10.026719      17.120742       6.980108       0.000000      12.765053     -23.979002 
     311       9.851144      46.896099       1.556313      48.452412      -0.000043 8000000000.000000      10.041576      17.108491       6.996424       0.000000      12.749609     -23.994315 
     312       9.918150      46.899611       1.566898      48.466510      -0.000046 8000000000.000000      10.057095      17.098285       7.012580       0.000000      12.731651     -24.020493 
     313       9.975928      46.904786       1.576026      48.480812      -0.000052 8000000000.000000      10.075078      17.091863       7.028312       0.000000      12.709532     -24.054668 
     314      10.024010      46.911710       1.583622      48.495332      -0.000059 8000000000.000000      10.093573      17.090502       7.043373       0.000000      12.684261     -24.092640 
     315      10.073444      46.918502       1.591432      48.509934      -0.000065 8000000000.000000      10.106808      17.094917       7.057556       0.000000      12.659221     -24.129775 
     316      10.135555      46.923234       1.601245      48.524478      -0.000066 8000000000.000000      10.108270      17.105294       7.070702       0.000000      12.638967     -24.162064 
     317      10.208758      46.926169       1.612810      48.538979      -0.000063 8000000000.000000      10.094529      17.121348       7.082699       0.000000      12.627593     -24.187005 
     318      10.278128      46.929828       1.623769      48.553596      -0.000054 8000000000.000000      10.066762      17.142416       7.093471       0.000000      12.627179     -24.204063 
     319      10.328900      46.936681       1.631790      48.568471      -0.000041 8000000000.000000      10.029268      17.167605       7.102970       0.000000      12.636838     -24.214567 
     320      10.360340      46.946820       1.636757      48.583576      -0.000026 8000000000.000000       9.987005      17.195981       7.111162       0.000000      12.652671     -24.221112 
     321      10.386163      46.957909       1.640836      48.598746      -0.000014 8000000000.000000       9.944510      17.226755       7.118025       0.000000      12.668619     -24.226669 
     322      10.421711      46.967393       1.646452      48.613846      -0.000005 8000000000.000000       9.906428      17.259394       7.123548       0.000000      12.678024     -24.233665 
     323      10.472157      46.974487       1.654422      48.628909      -0.000002 8000000000.000000       9.877787      17.293618       7.127727       0.000000      12.675355     -24.243362 
     324      10.533296      46.980004       1.664081      48.644085      -0.000006 8000000000.000000       9.862518      17.329268       7.130569       0.000000      12.657649     -24.255703 
     325      10.602325      46.984480       1.674986      48.659466      -0.000015 8000000000.000000       9.861043      17.366147       7.132089       0.000000      12.625201     -24.269630 
     326      10.685158      46.986936       1.688073      48.675009      -0.000025 8000000000.000000       9.869420      17.403887       7.132299       0.000000      12.581331     -24.283694 
     327      10.790940      46.985811       1.704784      48.690596      -0.000035 8000000000.000000       9.881456      17.441937       7.131208       0.000000      12.531211     -24.296861 
     328      10.919690      46.981078       1.725125      48.706203      -0.000042 8000000000.000000       9.892461      17.479659       7.128821       0.000000      12.480137     -24.309192 
     329      11.056882      46.975152       1.746799      48.721950      -0.000044 8000000000.000000       9.901706      17.516497       7.125137       0.000000      12.431812     -24.322129 
     330      11.182433      46.971381       1.766634      48.738014      -0.000043 8000000000.000000       9.911884      17.552144       7.120147       0.000000      12.387206     -24.338249 
     331      11.286219      46.971409       1.783030      48.754439      -0.000042 8000000000.000000       9.926690      17.586657       7.113833       0.000000      12.344229     -24.360656 
     332      11.374461      46.974120       1.796971      48.771090      -0.000042 8000000000.000000       9.949070      17.620478       7.106170       0.000000      12.298402     -24.392086 
     333      11.460673      46.977192       1.810591      48.787783      -0.000046 8000000000.000000       9.981326      17.654365       7.097129       0.000000      12.244373     -24.434004 
     334      11.550871      46.979631       1.824840      48.804471      -0.000055 8000000000.000000      10.025877      17.689264       7.086687       0.000000      12.177803     -24.485955 
     335      11.638352      46.982597       1.838661      48.821258      -0.000070 8000000000.000000      10.084629      17.726129       7.074843       0.000000      12.096995     -24.545482 
     336      11.712589      46.987882       1.850389      48.838271      -0.000089 8000000000.000000      10.156748      17.765718       7.061626       0.000000      12.003790     -24.608564 
     337      11.771767      46.995782       1.859738      48.855520      -0.000109 8000000000.000000      10.236987      17.808336       7.047102       0.000000      11.903357     -24.670492 
     338      11.825114      47.004703       1.868166      48.872870      -0.000126 8000000000.000000      10.316856      17.853607       7.031369       0.000000      11.802872     -24.726981 
     339      11.882763      47.012920       1.877274      48.890193      -0.000139 8000000000.000000      10.388489      17.900343       7.014540       0.000000      11.709547     -24.775166 
     340      11.944948      47.020419       1.887098      48.907517      -0.000145 8000000000.000000      10.448383      17.946596       6.996729       0.000000      11.628711     -24.814137 
     341      12.003592      47.028630       1.896363      48.924992      -0.000146 8000000000.000000      10.498115      17.989944       6.978031       0.000000      11.562540     -24.844899 
     342      12.055440      47.038174       1.904554      48.942728      -0.000143 8000000000.000000      10.541834      18.027973       6.958521       0.000000      11.509846     -24.869781 
     343      12.112033      47.047163       1.913495      48.960657      -0.000141 8000000000.000000      10.583152      18.058813       6.938256       0.000000      11.466940     -24.891502 
     344      12.194144      47.052143       1.926467      48.978610      -0.000141 8000000000.000000      10.624019      18.081559       6.917284       0.000000      11.429281     -24.912190 
     345      12.314691      47.050989       1.945511      48.996500      -0.000146 8000000000.000000      10.665561      18.096422       6.895661       0.000000      11.393346     -24.932667 
     346      12.467052      47.044870       1.969581      49.014451      -0.000156 8000000000.000000      10.708646      18.104577       6.873455       0.000000      11.358191     -24.952284 
     347      12.631033      47.037211       1.995488      49.032698      -0.000169 8000000000.000000      10.752553      18.107761       6.850758       0.000000      11.326139     -24.969231 
     348      12.790557      47.030680       2.020690      49.051370      -0.000182 8000000000.000000      10.792883      18.107778       6.827672       0.000000      11.302347     -24.981268 
     349      12.944787      47.025327       2.045055      49.070382      -0.000191 8000000000.000000      10.821551      18.106078       6.804308       0.000000      11.293389     -24.986622 
     350      13.101987      47.019669       2.069890      49.089559      -0.000194 8000000000.000000      10.830052      18.103538       6.780769       0.000000      11.305309     -24.984742 
     351      13.264463      47.013280       2.095559      49.108839      -0.000188 8000000000.000000      10.813911      18.100505       6.757139       0.000000      11.341725     -24.976655 
     352      13.422596      47.007805       2.120541      49.128346      -0.000174 8000000000.000000      10.774701      18.097048       6.733476       0.000000      11.402580     -24.964809 
     353      13.565201      47.005166       2.143070      49.148236      -0.000155 8000000000.000000      10.718146      18.093309       6.709814       0.000000      11.483896     -24.952434 
     354      13.694092      47.005063       2.163433      49.168496      -0.000134 8000000000.000000      10.650445      18.089826       6.686167       0.000000      11.578625     -24.942587 
     355      13.824750      47.004856       2.184075      49.188930      -0.000115 8000000000.000000      10.576245      18.087674       6.662539       0.000000      11.678397     -24.937168 
     356      13.970017      47.002339       2.207024      49.209363      -0.000100 8000000000.000000      10.499354      18.088353       6.638942       0.000000      11.775689     -24.936205 
     357      14.123808      46.998519       2.231321      49.229840      -0.000090 8000000000.000000      10.423980      18.093416       6.615406       0.000000      11.865717     -24.937664 
     358      14.263530      46.997191       2.253394      49.250585      -0.000085 8000000000.000000      10.353843      18.103896       6.591979       0.000000      11.947473     -24.937893 
     359      14.370399      47.001491       2.270278      49.271768      -0.000081 8000000000.000000      10.289456      18.119754       6.568723       0.000000      12.023558     -24.932515 
     360      14.447036      47.010914       2.282385      49.293299      -0.000075 8000000000.000000      10.226764      18.139566       6.545704       0.000000      12.098880     -24.917559 
     361      14.514496      47.021878       2.293043      49.314920      -0.000064 8000000000.000000      10.159723      18.160622       6.522979       0.000000      12.178554     -24.890558 
[...]
    9869     354.526659      48.341830      56.009161     104.350992       0.000484 8000000000.000000      32.102379      52.769611      10.573299       0.000000     -47.103459     -86.625420 
    9870     349.832582      49.186556      55.267577     104.454133       0.000579 8000000000.000000      32.073890      54.427568      10.503172       0.000000     -47.818074     -87.244273 
    9871     343.969592      50.182829      54.341325     104.524154       0.000626 8000000000.000000      32.348857      55.411438      10.402308       0.000000     -47.979775     -87.504735 
    9872     340.277405      50.775031      53.758022     104.533053       0.000635 8000000000.000000      32.809546      55.438036      10.265334       0.000000     -47.737886     -87.473286 
    9873     337.405866      51.228267      53.304368     104.532636       0.000614 8000000000.000000      33.809616      54.539444      10.098901       0.000000     -47.219693     -87.204812 
    9874     332.933736      51.965952      52.597848     104.563800       0.000573 8000000000.000000      35.554579      53.018270       9.918150       0.000000     -46.525047     -86.740253 
    9875     327.778641      52.857588      51.783431     104.641019       0.000516 8000000000.000000      37.488693      51.317916       9.738927       0.000000     -45.687947     -86.053349 
    9876     326.003677      53.185767      51.503017     104.688784       0.000477 8000000000.000000      38.530417      49.857558       9.571878       0.000000     -44.774086     -85.160400 
    9877     329.520497      52.609958      52.058614     104.668572       0.000484 8000000000.000000      38.084443      48.901998       9.420750       0.000000     -43.797233     -84.071832 
    9878     334.376211      51.794801      52.825734     104.620536       0.000543 8000000000.000000      36.708533      48.486478       9.284334       0.000000     -42.684544     -82.785596 
    9879     334.516036      51.789823      52.847824     104.637647       0.000598 8000000000.000000      35.541756      48.421059       9.160123       0.000000     -41.333115     -81.327099 
    9880     329.077523      52.736513      51.988632     104.725145       0.000612 8000000000.000000      35.078982      48.397274       9.047563       0.000000     -39.787306     -79.849194 
    9881     324.014477      53.629168      51.188757     104.817925       0.000624 8000000000.000000      34.775810      48.150523       8.948854       0.000000     -38.246019     -78.553376 
    9882     325.621925      53.384396      51.442707     104.827103       0.000630 8000000000.000000      33.963651      47.593595       8.867384       0.000000     -37.040234     -77.658394 
    9883     333.175526      52.121299      52.636047     104.757346       0.000630 8000000000.000000      32.903945      46.861257       8.805697       0.000000     -36.449600     -77.304609 
    9884     339.224800      51.108536      53.591729     104.700265       0.000625 8000000000.000000      32.647580      46.239872       8.763889       0.000000     -36.542804     -77.487238 
    9885     337.537462      51.404500      53.325158     104.729658       0.000613 8000000000.000000      33.815480      46.021686       8.738795       0.000000     -37.171461     -78.062517 
    9886     329.466057      52.768285      52.050014     104.818298       0.000619 8000000000.000000      35.752237      46.387428       8.724907       0.000000     -38.096287     -78.822435 
    9887     321.677913      54.056743      50.819620     104.876363       0.000659 8000000000.000000      37.075623      47.376210       8.717031       0.000000     -39.112121     -79.573663 
    9888     318.524372      54.542355      50.321414     104.863770       0.000743 8000000000.000000      37.014927      48.896845       8.712118       0.000000     -40.081535     -80.166150 
    9889     318.464604      54.520662      50.311972     104.832634       0.000850 8000000000.000000      36.003537      50.718158       8.708838       0.000000     -40.909871     -80.497603 
    9890     318.368123      54.558608      50.296730     104.855338       0.000943 8000000000.000000      34.892916      52.486226       8.706356       0.000000     -41.526890     -80.531896 
    9891     319.427146      54.458492      50.464037     104.922529       0.000982 8000000000.000000      33.843095      53.838701       8.704071       0.000000     -41.927375     -80.347013 
    9892     326.011866      53.436852      51.504311     104.941162       0.000988 8000000000.000000      32.356833      54.547206       8.701688       0.000000     -42.168876     -80.104934 
    9893     338.637534      51.370981      53.498951     104.869931       0.000973 8000000000.000000      30.384472      54.581672       8.699305       0.000000     -42.294468     -79.935062 
    9894     350.476563      49.402276      55.369315     104.771592       0.000934 8000000000.000000      28.926454      54.095072       8.697974       0.000000     -42.317224     -79.883494 
    9895     352.776574      49.015002      55.732678     104.747680       0.000865 8000000000.000000      29.178224      53.367028       8.701175       0.000000     -42.231425     -79.900407 
    9896     343.595528      50.539518      54.282229     104.821747       0.000780 8000000000.000000      31.169075      52.711884       8.715395       0.000000     -42.056836     -79.896041 
    9897     329.641725      52.833832      52.077766     104.911599       0.000698 8000000000.000000      33.574413      52.359676       8.748124       0.000000     -41.848380     -79.805997 
    9898     319.178689      54.499769      50.424785     104.924554       0.000675 8000000000.000000      35.011189      52.349953       8.804111       0.000000     -41.665485     -79.626372 
    9899     313.936873      55.273844      49.596668     104.870512       0.000662 8000000000.000000      35.388082      52.489577       8.882269       0.000000     -41.486084     -79.359110 
    9900     310.037916      55.866670      48.980699     104.847369       0.000650 8000000000.000000      35.650122      52.429839       8.974503       0.000000     -41.187794     -78.982764 
    9901     305.973455      56.560952      48.338584     104.899536       0.000636 8000000000.000000      36.271646      51.883379       9.067988       0.000000     -40.662062     -78.519409 
    9902     306.436725      56.552653      48.411772     104.964426       0.000579 8000000000.000000      36.409167      50.836351       9.149650       0.000000     -39.842514     -78.001380 
    9903     316.734958      54.896629      50.038717     104.935346       0.000556 8000000000.000000      34.864750      49.581304       9.210734       0.000000     -38.760159     -77.473983 
    9904     334.175843      52.009005      52.794080     104.803085       0.000553 8000000000.000000      31.772961      48.564314       9.248517       0.000000     -37.576787     -77.002298 
    9905     347.536916      49.780687      54.904901     104.685588       0.000544 8000000000.000000      28.875521      48.161043       9.264473       0.000000     -36.520350     -76.629184 
    9906     347.330024      49.828443      54.872216     104.700659       0.000521 8000000000.000000      27.864876      48.508931       9.261342       0.000000     -35.806707     -76.360313 
    9907     335.759201      51.779041      53.044223     104.823264       0.000480 8000000000.000000      28.654679      49.471267       9.241589       0.000000     -35.588494     -76.192513 
    9908     324.238673      53.683614      51.224176     104.907790       0.000437 8000000000.000000      29.664385      50.715132       9.207328       0.000000     -35.903231     -76.129715 
    9909     321.034160      54.149472      50.717918     104.867390       0.000396 8000000000.000000      29.807746      51.808417       9.159781       0.000000     -36.626473     -76.153604 
    9910     323.853440      53.610162      51.163316     104.773478       0.000335 8000000000.000000      29.746717      52.287242       9.097522       0.000000     -37.521318     -76.216740 
    9911     325.836899      53.281463      51.476669     104.758132       0.000261 8000000000.000000      30.848326      51.759497       9.016016       0.000000     -38.342376     -76.250744 
    9912     326.795662      53.215536      51.628137     104.843673       0.000130 8000000000.000000      33.160393      50.082516       8.911302       0.000000     -38.938675     -76.208225 
    9913     335.079671      51.965926      52.936869     104.902796      -0.000048 8000000000.000000      34.992956      47.495334       8.785576       0.000000     -39.307939     -76.123120 
    9914     356.549713      48.478478      56.328769     104.807247      -0.000254 8000000000.000000      34.821324      44.571590       8.650388       0.000000     -39.564825     -76.106625 
    9915     384.018011      43.931797      60.668292     104.600088      -0.000477 8000000000.000000      33.256255      41.989290       8.523672       0.000000     -39.837421     -76.276302 
    9916     401.125078      41.090413      63.370916     104.461329      -0.000728 8000000000.000000      32.590883      40.261843       8.422071       0.000000     -40.184385     -76.700008 
    9917     397.965425      41.637305      62.871745     104.509050      -0.000975 8000000000.000000      34.286591      39.594729       8.354339       0.000000     -40.598355     -77.385554 
    9918     381.276029      44.423969      60.235105     104.659074      -0.001198 8000000000.000000      37.277454      39.897481       8.320749       0.000000     -41.071715     -78.306870 
    9919     366.996852      46.740937      57.979239     104.720176      -0.001332 8000000000.000000      39.191475      40.868752       8.317130       0.000000     -41.636421     -79.427975 
    9920     363.318010      47.209503      57.398045     104.607548      -0.001380 8000000000.000000      39.177318      42.063486       8.338606       0.000000     -42.369906     -80.712684 
    9921     364.007390      46.948116      57.506955     104.455070      -0.001351 8000000000.000000      38.899122      42.969163       8.380768       0.000000     -43.300938     -82.063652 
    9922     359.628060      47.628120      56.815096     104.443216      -0.001278 8000000000.000000      40.320382      43.210187       8.440695       0.000000     -44.343144     -83.318497 
    9923     352.611594      48.856546      55.706614     104.563159      -0.001224 8000000000.000000      42.856217      42.811106       8.518089       0.000000     -45.328866     -84.313649 
    9924     356.309947      48.315374      56.290890     104.606264      -0.001183 8000000000.000000      43.609061      42.235135       8.614656       0.000000     -46.143478     -84.974173 
    9925     377.097328      44.838944      59.574942     104.413886      -0.001153 8000000000.000000      40.767243      42.110983       8.732633       0.000000     -46.771915     -85.328322 
    9926     401.732397      40.635373      63.466862     104.102235      -0.001127 8000000000.000000      36.072198      42.881051       8.872738       0.000000     -47.190613     -85.475663 
    9927     408.279387      39.472017      64.501175     103.973192      -0.001080 8000000000.000000      33.100673      44.614523       9.032271       0.000000     -47.275450     -85.514202 
    9928     390.800606      42.384731      61.739826     104.124557      -0.000995 8000000000.000000      33.150669      47.048523       9.204177       0.000000     -47.018638     -85.585039 
    9929     367.117454      46.320135      57.998292     104.318426      -0.000818 8000000000.000000      33.791003      49.768715       9.380077       0.000000     -46.619660     -85.849391 
    9930     358.622760      47.619285      56.656275     104.275560      -0.000505 8000000000.000000      32.012467      52.349746       9.554112       0.000000     -46.297041     -86.374367 
    9931     366.233172      46.141067      57.858591     103.999658      -0.000110 8000000000.000000      28.179126      54.361120       9.724560       0.000000     -46.123738     -87.087170 
    9932     371.214769      45.132946      58.645598     103.778544       0.000266 8000000000.000000      25.843142      55.361882       9.892854       0.000000     -45.964932     -87.766474 
    9933     359.866465      46.975645      56.852759     103.828405       0.000536 8000000000.000000      27.468964      55.047405      10.060903       0.000000     -45.601627     -88.165507 
    9934     341.525000      50.061370      53.955121     104.016491       0.000669 8000000000.000000      31.222455      53.496822      10.227677       0.000000     -44.885584     -88.162900 
    9935     336.954786      50.780624      53.233105     104.013730       0.000688 8000000000.000000      32.873638      51.293660      10.387805       0.000000     -43.774478     -87.802594 
    9936     350.642944      48.311158      55.395601     103.706759       0.000619 8000000000.000000      30.695144      49.337981      10.534494       0.000000     -42.256461     -87.198884 
    9937     361.651913      46.223016      57.134830     103.357846       0.000494 8000000000.000000      27.476619      48.417111      10.663516       0.000000     -40.334231     -86.454245 
    9938     346.374427      48.592937      54.721248     103.314185       0.000328 8000000000.000000      27.116136      48.821176      10.773252       0.000000     -38.117627     -85.661509 
    9939     307.676497      54.978761      48.607635     103.586396       0.000218 8000000000.000000      29.801839      50.252953      10.861995       0.000000     -35.938026     -84.967485 
    9940     275.076180      60.369818      43.457342     103.827160       0.000230 8000000000.000000      31.677379      52.027449      10.926732       0.000000     -34.261742     -84.527010 
    9941     274.113397      60.407765      43.305238     103.713004       0.000393 8000000000.000000      29.525931      53.392893      10.964665       0.000000     -33.475723     -84.426106 
    9942     299.629086      56.000731      47.336282     103.337013       0.000653 8000000000.000000      24.875314      53.836107      10.975162       0.000000     -33.685852     -84.616286 
    9943     323.623946      51.945691      51.127060     103.072751       0.000866 8000000000.000000      22.441485      53.292667      10.961198       0.000000     -34.749658     -84.971388 
    9944     328.020442      51.327024      51.821631     103.148655       0.000887 8000000000.000000      24.632620      52.160800      10.928686       0.000000     -36.395083     -85.332608 
    9945     323.418301      52.260489      51.094572     103.355061       0.000730 8000000000.000000      28.683900      51.072078      10.883685       0.000000     -38.379174     -85.621224 
    9946     331.780504      50.913885      52.415657     103.329542       0.000443 8000000000.000000      29.954446      50.540887      10.828901       0.000000     -40.410348     -85.782236 
    9947     355.572499      46.827320      56.174386     103.001706       0.000083 8000000000.000000      27.463113      50.714178      10.763678       0.000000     -42.113649     -85.762675 
    9948     371.959807      43.915452      58.763301     102.678753      -0.000293 8000000000.000000      25.038484      51.371296      10.686411       0.000000     -43.180739     -85.582339 
    9949     359.401801      45.910908      56.779351     102.690258      -0.000640 8000000000.000000      26.717807      52.115615      10.596290       0.000000     -43.518804     -85.361580 
    9950     324.860761      51.647131      51.322456     102.969587      -0.000881 8000000000.000000      31.902519      52.585532      10.492493       0.000000     -43.333413     -85.330781 
    9951     298.419861      56.007768      47.145245     103.153012      -0.000937 8000000000.000000      36.035167      52.561843      10.372955       0.000000     -42.962197     -85.656764 
    9952     301.381140      55.377156      47.613076     102.990232      -0.000805 8000000000.000000      35.912324      51.958225      10.234341       0.000000     -42.727734     -86.349925 
    9953     324.863515      51.303509      51.322891     102.626400      -0.000583 8000000000.000000      33.263172      50.791671      10.073983       0.000000     -42.825316     -87.267255 
    9954     342.535408      48.304124      54.114748     102.418872      -0.000420 8000000000.000000      32.493709      49.164192       9.893288       0.000000     -43.247065     -88.195209 
    9955     341.556176      48.555349      53.960046     102.515396      -0.000419 8000000000.000000      35.439120      47.219181       9.699771       0.000000     -43.802722     -88.962901 
    9956     335.173372      49.732446      52.951672     102.684118      -0.000589 8000000000.000000      39.338005      45.128436       9.506118       0.000000     -44.240113     -89.478601 
    9957     343.155913      48.392492      54.212777     102.605269      -0.000870 8000000000.000000      40.291050      43.132230       9.326313       0.000000     -44.357101     -89.686854 
    9958     364.746692      44.641155      57.623752     102.264907      -0.001184 8000000000.000000      37.980591      41.535664       9.170682       0.000000     -44.045782     -89.553571 
    9959     377.685069      42.311197      59.667795     101.978992      -0.001476 8000000000.000000      35.972305      40.608575       9.043075       0.000000     -43.312759     -89.101758 
    9960     364.903365      44.361883      57.648504     102.010387      -0.001673 8000000000.000000      37.285614      40.451351       8.941467       0.000000     -42.316550     -88.455013 
    9961     336.408057      49.100927      53.146731     102.247659      -0.001687 8000000000.000000      40.664807      40.924311       8.860010       0.000000     -41.348200     -87.827172 
    9962     319.268370      51.900207      50.438953     102.339161      -0.001461 8000000000.000000      42.079674      41.703875       8.790868       0.000000     -40.674210     -87.404062 
    9963     327.494202      50.371040      51.738494     102.109534      -0.001010 8000000000.000000      39.577938      42.454593       8.725821       0.000000     -40.387313     -87.225020 
    9964     347.377936      46.884481      54.879785     101.764266      -0.000456 8000000000.000000      35.623222      43.018016       8.658482       0.000000     -40.415238     -87.179237 
    9965     354.979086      45.540495      56.080637     101.621132      -0.000014 8000000000.000000      34.167210      43.467501       8.586489       0.000000     -40.680705     -87.153790 
    9966     344.068497      47.388239      54.356950     101.745190       0.000203 8000000000.000000      36.001439      43.991808       8.510571       0.000000     -41.115579     -87.092229 
    9967     331.556738      49.502722      52.380306     101.883027       0.000167 8000000000.000000      37.907810      44.732532       8.432071       0.000000     -41.569692     -86.951776 
    9968     335.528555      48.758860      53.007785     101.766645      -0.000035 8000000000.000000      36.515614      45.690108       8.350294       0.000000     -41.797155     -86.657574 
    9969     352.875803      45.696268      55.748354     101.444622      -0.000278 8000000000.000000      32.247028      46.732193       8.263068       0.000000     -41.546021     -86.118123 
    9970     362.892037      43.865586      57.330748     101.196334      -0.000492 8000000000.000000      28.754969      47.687295       8.169003       0.000000     -40.745681     -85.378523 
    9971     351.873592      45.637007      55.590022     101.227028      -0.000601 8000000000.000000      28.646456      48.425488       8.069336       0.000000     -39.504274     -84.583552 
    9972     329.872712      49.3003