LAMMPS (17 Nov 2015)
WARNING: OMP_NUM_THREADS environment is not set. (../comm.cpp:90)
  using 1 OpenMP thread(s) per MPI task
Reading data file ...
  orthogonal box = (-1000 -1000 -1000) to (1000 1000 1000)
  1 by 1 by 1 MPI processor grid
  reading atoms ...
  54 atoms
  scanning bonds ...
  3 = max bonds/atom
  scanning angles ...
  6 = max angles/atom
  scanning dihedrals ...
  17 = max dihedrals/atom
  reading bonds ...
  54 bonds
  reading angles ...
  93 angles
  reading dihedrals ...
  134 dihedrals
Finding 1-2 1-3 1-4 neighbors ...
 Special bond factors lj:   0          0          1         
 Special bond factors coul: 0          0          1         
  4 = max # of 1-2 neighbors
  9 = max # of 1-3 neighbors
  13 = max # of special neighbors
WARNING: Resetting reneighboring criteria during minimization (../min.cpp:168)
Neighbor list info ...
  1 neighbor list requests
  update every 1 steps, delay 0 steps, check yes
  max neighbors/atom: 2000, page size: 100000
  master list distance cutoff = 12
  ghost atom cutoff = 12
  binsize = 6, bins = 334 334 334
Setting up cg style minimization ...
  Unit style: real
Memory usage per processor = 163.467 Mbytes
Step Temp PotEng KinEng TotEng Press Volume E_bond E_angle E_dihed E_impro E_pair E_coul 
       0       0.000000      71.839196       0.000000      71.839196       0.002522 8000000000.000000       7.484108       6.311105       7.832160       0.000000      50.211823      -9.461408 
      32       0.000000      46.335736       0.000000      46.335736      -0.000001 8000000000.000000       9.390229      17.044827       6.417422       0.000000      13.483258     -22.339765 
Loop time of 0.00438309 on 1 procs for 32 steps with 54 atoms

91.3% CPU use with 1 MPI tasks x 1 OpenMP threads

Minimization stats:
  Stopping criterion = energy tolerance
  Energy initial, next-to-last, final = 
         71.8391955099      46.3790410769      46.3357357123
  Force two-norm initial, final = 148.319 7.10402
  Force max component initial, final = 32.9245 2.58254
  Final line search alpha, max atom move = 0.012606 0.0325554
  Iterations, force evaluations = 32 64

MPI task timing breakdown:
Section |  min time  |  avg time  |  max time  |%varavg| %total
---------------------------------------------------------------
Pair    | 0.0026453  | 0.0026453  | 0.0026453  |   0.0 | 60.35
Bond    | 0.0015035  | 0.0015035  | 0.0015035  |   0.0 | 34.30
Neigh   | 0          | 0          | 0          |   0.0 |  0.00
Comm    | 9.5367e-07 | 9.5367e-07 | 9.5367e-07 |   0.0 |  0.02
Output  | 0          | 0          | 0          |   0.0 |  0.00
Modify  | 0          | 0          | 0          |   0.0 |  0.00
Other   |            | 0.0002334  |            |       |  5.33

Nlocal:    54 ave 54 max 54 min
Histogram: 1 0 0 0 0 0 0 0 0 0
Nghost:    0 ave 0 max 0 min
Histogram: 1 0 0 0 0 0 0 0 0 0
Neighs:    1274 ave 1274 max 1274 min
Histogram: 1 0 0 0 0 0 0 0 0 0

Total # of neighbors = 1274
Ave neighs/atom = 23.5926
Ave special neighs/atom = 5.44444
Neighbor list builds = 0
Dangerous builds = 0
Neighbor list info ...
  1 neighbor list requests
  update every 2 steps, delay 4 steps, check yes
  max neighbors/atom: 2000, page size: 100000
  master list distance cutoff = 12
  ghost atom cutoff = 12
  binsize = 6, bins = 334 334 334
Setting up Verlet run ...
  Unit style  : real
  Current step: 0
  Time step   : 1
Memory usage per processor = 162.342 Mbytes
Step Temp PotEng KinEng TotEng Press Volume E_bond E_angle E_dihed E_impro E_pair E_coul 
       0       0.000000      46.335736       0.000000      46.335736      -0.000001 8000000000.000000       9.390229      17.044827       6.417422       0.000000      13.483258     -22.339765 
    1000     128.991775      51.465436      20.378499      71.843935       0.000363 8000000000.000000      12.806948      22.555795       8.984118       0.000000       7.118576     -30.338577 
    2000     127.044974      31.534420      20.070937      51.605358       0.000035 8000000000.000000       9.773920      26.779219      11.704433       0.000000     -16.723151     -55.799394 
    3000     113.955276      27.121600      18.002989      45.124589      -0.000629 8000000000.000000      18.281148      29.711166       8.281173       0.000000     -29.151887     -65.416100 
    4000      78.388816      28.741502      12.384095      41.125597      -0.000468 8000000000.000000      18.732280      26.660562       7.617381       0.000000     -24.268720     -64.709561 
    5000      90.748218      29.776386      14.336670      44.113055      -0.000307 8000000000.000000      20.593969      25.377314      10.228150       0.000000     -26.423048     -66.799074 
    6000      96.872109      29.544106      15.304140      44.848246      -0.000314 8000000000.000000      18.432362      32.766979       9.137486       0.000000     -30.792720     -72.305350 
    7000     103.266370      29.152268      16.314324      45.466592       0.000400 8000000000.000000      15.740806      30.729227       7.404528       0.000000     -24.722293     -64.197886 
    8000      85.135671      27.486398      13.449983      40.936381      -0.000187 8000000000.000000      15.365355      29.493851       9.535753       0.000000     -26.908562     -68.430688 
    9000     116.082333      28.100175      18.339027      46.439202      -0.000327 8000000000.000000      20.778827      27.316900       6.697172       0.000000     -26.692723     -70.186861 
   10000     102.978684      26.499641      16.268875      42.768516      -0.000131 8000000000.000000      17.181694      28.791109       8.378441       0.000000     -27.851604     -69.861608 
   11000      95.922891      26.500529      15.154180      41.654709       0.000132 8000000000.000000      17.490496      34.102831       7.172809       0.000000     -32.265607     -70.310370 
   12000     101.953150      28.744004      16.106858      44.850862      -0.000602 8000000000.000000      18.097148      32.714677       6.493002       0.000000     -28.560823     -67.304320 
   13000      97.974960      26.189378      15.478372      41.667750       0.000518 8000000000.000000      16.657979      29.129323       7.688400       0.000000     -27.286325     -68.842665 
   14000     119.507104      27.057467      18.880083      45.937550      -0.000131 8000000000.000000      16.284454      25.680896       8.358734       0.000000     -23.266617     -67.070761 
   15000     102.576673      27.431901      16.205364      43.637265      -0.000002 8000000000.000000      16.608739      29.007529       7.891942       0.000000     -26.076309     -62.955788 
   16000      92.872328      23.930994      14.672243      38.603236       0.000245 8000000000.000000      16.183354      33.617816       6.806686       0.000000     -32.676862     -67.890223 
   17000     107.345922      30.090117      16.958824      47.048941      -0.000288 8000000000.000000      21.765315      28.558625       8.100021       0.000000     -28.333844     -67.443618 
   18000     117.889547      25.190157      18.624536      43.814693      -0.000135 8000000000.000000      17.347759      33.388654       8.884625       0.000000     -34.430880     -70.354118 
   19000      81.284916      28.741680      12.841629      41.583309       0.000088 8000000000.000000      16.464592      33.554432       7.558989       0.000000     -28.836333     -70.888859 
   20000     116.478410      26.495624      18.401601      44.897225       0.001095 8000000000.000000      15.006843      28.448542       7.540855       0.000000     -24.500616     -70.290728 
   21000     110.540722      27.828886      17.463547      45.292434       0.000242 8000000000.000000      19.921069      25.352585       7.360868       0.000000     -24.805635     -64.864694 
   22000     114.245231      25.550510      18.048797      43.599307       0.000305 8000000000.000000      14.897539      31.352292       6.505629       0.000000     -27.204950     -66.015333 
   23000      95.684715      25.554788      15.116552      40.671340      -0.000320 8000000000.000000      20.763944      26.917310       7.996700       0.000000     -30.123166     -67.378270 
   24000     126.827291      29.669157      20.036547      49.705704       0.000358 8000000000.000000      21.396017      27.086088       8.096985       0.000000     -26.909932     -69.754110 
   25000     112.920768      22.630937      17.839554      40.470491       0.000254 8000000000.000000      17.305660      29.776604       6.929771       0.000000     -31.381099     -71.085256 
   26000     113.937861      27.086550      18.000237      45.086788       0.000274 8000000000.000000      13.736112      28.856707       8.294039       0.000000     -23.800308     -66.668137 
   27000      90.753206      25.548047      14.337458      39.885505      -0.000038 8000000000.000000      19.545423      30.834316       7.276186       0.000000     -32.107878     -71.239312 
   28000     121.308266      25.730891      19.164636      44.895527      -0.000007 8000000000.000000      17.895967      19.606428       8.146640       0.000000     -19.918144     -65.170889 
   29000     117.092816      25.239801      18.498666      43.738468      -0.000228 8000000000.000000      18.336651      31.834741       7.282068       0.000000     -32.213659     -71.667084 
   30000      86.451830      28.969673      13.657914      42.627587       0.000012 8000000000.000000      19.351544      27.906722       8.439743       0.000000     -26.728336     -65.976361 
   31000     106.594161      28.194101      16.840058      45.034159       0.001136 8000000000.000000      13.915019      24.688221       7.979920       0.000000     -18.389060     -63.809287 
   32000      98.383674      26.221902      15.542941      41.764843       0.000284 8000000000.000000      21.151951      27.440594       7.589354       0.000000     -29.959997     -70.581485 
   33000     116.753931      26.473278      18.445128      44.918406      -0.000167 8000000000.000000      18.022573      30.446331       9.055801       0.000000     -31.051427     -67.927910 
   34000      87.949605      26.716539      13.894537      40.611076       0.000059 8000000000.000000      20.828242      29.408527       7.440510       0.000000     -30.960739     -73.817010 
   35000     117.094885      25.836359      18.498993      44.335352       0.000619 8000000000.000000      16.701862      31.647439       7.162213       0.000000     -29.675154     -69.182085 
   36000      96.177640      23.170968      15.194426      38.365393      -0.000854 8000000000.000000      19.652990      31.893322       6.994079       0.000000     -35.369424     -70.106316 
   37000      99.067016      27.724753      15.650898      43.375651       0.000370 8000000000.000000      18.701147      26.072187       7.041526       0.000000     -24.090107     -67.894225 
   38000      96.465520      25.718045      15.239906      40.957951       0.000829 8000000000.000000      16.530049      25.787062       7.022718       0.000000     -23.621784     -64.793332 
   39000      96.559891      26.408883      15.254815      41.663698       0.000255 8000000000.000000      16.659997      31.108110       6.881240       0.000000     -28.240463     -70.170554 
   40000     110.721845      27.423927      17.492162      44.916089      -0.000672 8000000000.000000      22.520482      30.337896       7.700860       0.000000     -33.135310     -69.682495 
   41000      96.392273      22.046304      15.228334      37.274638       0.000323 8000000000.000000      16.430776      28.871088       7.767307       0.000000     -31.022868     -70.051568 
   42000      97.517081      25.198530      15.406034      40.604564      -0.000105 8000000000.000000      17.609849      25.917141       8.158395       0.000000     -26.486855     -64.704866 
   43000     133.632293      26.027195      21.111622      47.138816       0.000258 8000000000.000000      16.308063      28.107966       7.570476       0.000000     -25.959310     -71.356789 
   44000     110.202081      25.955431      17.410048      43.365479      -0.000102 8000000000.000000      21.004602      26.273658       7.718177       0.000000     -29.041005     -66.878624 
   45000      85.661496      24.120629      13.533054      37.653683      -0.000090 8000000000.000000      18.307983      32.667403       7.720751       0.000000     -34.575509     -69.582322 
   46000     119.396898      24.892691      18.862672      43.755363       0.000425 8000000000.000000      18.546440      27.417171       8.108224       0.000000     -29.179144     -70.069358 
   47000      96.216354      25.518540      15.200542      40.719082       0.000435 8000000000.000000      18.401433      31.265402       8.270937       0.000000     -32.419232     -73.205103 
   48000     101.333786      27.403543      16.009009      43.412551       0.000108 8000000000.000000      19.644370      29.683013       8.421882       0.000000     -30.345722     -71.088800 
   49000      99.432440      25.745540      15.708628      41.454168      -0.000350 8000000000.000000      21.161556      30.037619       6.857813       0.000000     -32.311449     -72.507041 
   50000     104.263593      27.803586      16.471868      44.275454       0.000564 8000000000.000000      19.221635      25.758291       7.500082       0.000000     -24.676422     -67.490949 
   51000      96.238779      23.479377      15.204085      38.683462      -0.000528 8000000000.000000      18.626231      30.422416       7.057988       0.000000     -32.627258     -72.249596 
   52000     127.899547      22.999531      20.205945      43.205477      -0.000500 8000000000.000000      20.397649      24.420296       8.221923       0.000000     -30.040337     -71.218386 
   53000      93.006511      25.144774      14.693441      39.838216       0.000563 8000000000.000000      13.770453      27.080639       7.568478       0.000000     -23.274796     -64.981010 
   54000     110.020249      26.796248      17.381322      44.177569       0.000299 8000000000.000000      18.607842      29.501662       6.674897       0.000000     -27.988154     -70.720468 
   55000     100.238756      22.721296      15.836013      38.557308      -0.000075 8000000000.000000      17.058156      28.357251       7.118555       0.000000     -29.812667     -71.146674 
   56000      98.916122      27.822329      15.627059      43.449388       0.000340 8000000000.000000      20.405673      30.813667       6.656733       0.000000     -30.053743     -73.266940 
   57000      99.814083      25.513141      15.768922      41.282063      -0.000427 8000000000.000000      22.035196      27.920771       8.811846       0.000000     -33.254670     -70.455962 
   58000      96.480241      25.933707      15.242231      41.175938       0.000179 8000000000.000000      16.064281      30.817833       7.460881       0.000000     -28.409288     -65.132296 
   59000     110.058830      22.214009      17.387417      39.601425      -0.000440 8000000000.000000      19.021786      25.250380       6.462663       0.000000     -28.520821     -69.558144 
   60000      94.610839      26.456971      14.946898      41.403869       0.000098 8000000000.000000      20.715605      29.222671       7.712033       0.000000     -31.193338     -69.890013 
   61000     103.309915      27.221831      16.321203      43.543034       0.000018 8000000000.000000      15.694454      31.621330       7.547745       0.000000     -27.641698     -68.738556 
   62000      89.765141      25.034899      14.181360      39.216259      -0.000087 8000000000.000000      19.444683      27.234794       7.717463       0.000000     -29.362042     -70.573261 
   63000     105.144355      27.260073      16.611014      43.871087      -0.000083 8000000000.000000      19.528220      28.316876       7.553043       0.000000     -28.138065     -71.215541 
   64000     109.270473      27.007119      17.262870      44.269988       0.000633 8000000000.000000      17.160147      32.903273       7.645446       0.000000     -30.701747     -67.925970 
   65000      93.721884      26.810907      14.806458      41.617365      -0.000746 8000000000.000000      22.346884      23.153809       8.389347       0.000000     -27.079132     -67.119494 
   66000      99.572032      25.393639      15.730682      41.124321       0.000035 8000000000.000000      19.613304      29.232185       7.947540       0.000000     -31.399390     -69.661949 
   67000      83.071426      28.069261      13.123868      41.193128       0.000435 8000000000.000000      20.665339      28.267245       8.715955       0.000000     -29.579278     -72.650366 
   68000      98.826627      29.224714      15.612920      44.837634      -0.000567 8000000000.000000      20.453210      32.743681       7.741191       0.000000     -31.713367     -69.965608 
   69000      82.215116      27.222815      12.988585      40.211400       0.000155 8000000000.000000      17.598329      28.942556       7.528970       0.000000     -26.847040     -63.641961 
   70000     103.544127      26.525889      16.358205      42.884094      -0.000184 8000000000.000000      20.599206      28.712917       7.423405       0.000000     -30.209639     -70.809983 
   71000     118.463621      26.166048      18.715230      44.881278       0.000078 8000000000.000000      16.820213      33.111477       7.817965       0.000000     -31.583607     -71.411897 
   72000      91.807406      26.799130      14.504003      41.303133      -0.000401 8000000000.000000      22.933052      26.707925       7.194103       0.000000     -30.035951     -70.543931 
   73000     103.490648      25.048098      16.349756      41.397854       0.000784 8000000000.000000      17.025324      26.849626       7.441547       0.000000     -26.268398     -67.960710 
   74000     103.367599      27.733618      16.330316      44.063935      -0.000194 8000000000.000000      17.388773      31.083166       7.410274       0.000000     -28.148595     -65.657627 
   75000     102.090327      26.342625      16.128529      42.471154       0.000267 8000000000.000000      17.842349      28.532261       7.012850       0.000000     -27.044835     -66.768636 
   76000     102.031158      25.318768      16.119182      41.437950      -0.000055 8000000000.000000      20.258488      27.782998       7.303308       0.000000     -30.026026     -71.426401 
   77000     103.214767      25.777302      16.306172      42.083474       0.000319 8000000000.000000      16.525355      33.166774       6.878276       0.000000     -30.793102     -70.267763 
   78000      90.833987      24.261188      14.350220      38.611408       0.000030 8000000000.000000      16.992818      31.031843       6.547356       0.000000     -30.310830     -72.553817 
   79000     112.093438      25.530186      17.708850      43.239036      -0.000086 8000000000.000000      19.025677      29.832989       7.502793       0.000000     -30.831273     -69.820612 
   80000      73.483344      26.228118      11.609114      37.837233      -0.000752 8000000000.000000      20.823998      26.911238       8.085826       0.000000     -29.592943     -68.394118 
   81000     102.919985      27.605492      16.259601      43.865093       0.000836 8000000000.000000      18.458100      24.547701       7.812392       0.000000     -23.212701     -67.571093 
   82000      93.362916      22.484529      14.749747      37.234277       0.000705 8000000000.000000      15.864873      30.375655       7.223934       0.000000     -30.979933     -71.293861 
   83000     108.864135      24.848529      17.198675      42.047204      -0.000003 8000000000.000000      18.164347      31.635023       7.842412       0.000000     -32.793252     -71.415359 
   84000      91.209786      24.112300      14.409590      38.521890       0.000192 8000000000.000000      18.876932      29.040148       7.774215       0.000000     -31.578995     -73.549007 
   85000     101.153336      25.884247      15.980501      41.864748       0.000593 8000000000.000000      17.800266      29.958417       8.435390       0.000000     -30.309825     -70.093581 
   86000     102.821115      24.070341      16.243981      40.314323      -0.000738 8000000000.000000      19.578686      26.576874       7.647916       0.000000     -29.733135     -67.878606 
   87000      98.464123      26.139874      15.555651      41.695525       0.000342 8000000000.000000      18.460281      27.052194       7.674269       0.000000     -27.046871     -69.031218 
   88000     123.014623      25.731964      19.434211      45.166175       0.000125 8000000000.000000      17.104025      31.842266       6.702518       0.000000     -29.916845     -67.328633 
   89000     107.147990      23.673438      16.927554      40.600992      -0.000102 8000000000.000000      18.574097      28.683234       6.547511       0.000000     -30.131404     -70.349420 
   90000     107.326245      23.214340      16.955715      40.170055      -0.000540 8000000000.000000      18.956413      28.797494       7.682784       0.000000     -32.222351     -71.127170 
   91000     127.840146      24.584936      20.196561      44.781497      -0.000241 8000000000.000000      18.266036      26.555124       7.992987       0.000000     -28.229211     -71.441255 
   92000     104.409497      26.125575      16.494919      42.620494       0.000912 8000000000.000000      18.346935      28.964913       7.245062       0.000000     -28.431335     -67.909811 
   93000     102.542537      24.973197      16.199971      41.173167       0.000118 8000000000.000000      17.085014      27.616464       7.111940       0.000000     -26.840222     -67.628188 
   94000     116.767507      29.746067      18.447273      48.193340      -0.001198 8000000000.000000      24.508314      31.200728       6.947754       0.000000     -32.910729     -68.586004 
   95000     110.039829      24.004760      17.384415      41.389175       0.000327 8000000000.000000      16.418191      29.403216       7.739255       0.000000     -29.555903     -70.632670 
   96000      90.950852      25.557378      14.368682      39.926061      -0.000097 8000000000.000000      23.403465      26.836028       7.513758       0.000000     -32.195872     -69.772515 
   97000     102.889825      28.186245      16.254836      44.441081       0.000640 8000000000.000000      18.314765      30.997054       7.753521       0.000000     -28.879095     -72.690189 
   98000      90.505769      25.009768      14.298367      39.308135      -0.000481 8000000000.000000      17.083698      30.360940       7.274553       0.000000     -29.709423     -67.585410 
   99000     109.084116      28.190580      17.233429      45.424009       0.000459 8000000000.000000      15.894500      32.317498       7.443683       0.000000     -27.465101     -71.977218 
  100000      90.034554      24.798637      14.223923      39.022560      -0.000481 8000000000.000000      24.003118      25.814857       7.898160       0.000000     -32.917498     -71.013103 
  101000     112.603113      27.689115      17.789370      45.478485      -0.000764 8000000000.000000      19.016047      32.856948       7.012770       0.000000     -31.196650     -67.224047 
  102000      98.636622      24.869733      15.582903      40.452636      -0.000221 8000000000.000000      22.074593      29.417379       7.612103       0.000000     -34.234341     -71.197385 
  103000     104.309552      30.477969      16.479129      46.957098       0.000333 8000000000.000000      20.302077      32.072895       8.205743       0.000000     -30.102746     -67.661380 
  104000      95.650945      26.985882      15.111217      42.097099      -0.000088 8000000000.000000      16.031424      33.746420       7.512144       0.000000     -30.304106     -68.512872 
  105000      98.119951      23.981591      15.501278      39.482869       0.000106 8000000000.000000      15.508552      24.493533       8.168244       0.000000     -24.188738     -66.422757 
  106000     113.829815      26.203579      17.983168      44.186747       0.000321 8000000000.000000      17.820053      32.132298       8.151965       0.000000     -31.900738     -72.301921 
  107000      80.538269      24.985091      12.723672      37.708763      -0.000188 8000000000.000000      20.370957      25.984628       8.778179       0.000000     -30.148673     -69.608952 
  108000     106.652464      23.666452      16.849269      40.515721       0.000619 8000000000.000000      16.086473      30.192395       8.399850       0.000000     -31.012265     -73.652165 
  109000      98.439505      28.153919      15.551762      43.705681       0.000152 8000000000.000000      17.669235      30.882806       7.550886       0.000000     -27.949008     -69.913342 
  110000      84.794833      23.562791      13.396136      36.958928       0.000635 8000000000.000000      18.685290      29.953243       7.300155       0.000000     -32.375896     -71.510225 
  111000     102.178415      24.479794      16.142446      40.622240      -0.000419 8000000000.000000      18.153693      25.795378       8.899885       0.000000     -28.369162     -70.935672 
  112000      94.529449      26.304456      14.934040      41.238495       0.000333 8000000000.000000      17.734974      29.172544       7.463157       0.000000     -28.066220     -70.410260 
  113000     110.390887      28.605285      17.439876      46.045161      -0.000225 8000000000.000000      19.900765      27.283507       7.204448       0.000000     -25.783435     -64.954510 
  114000     105.626111      25.650346      16.687123      42.337469      -0.000141 8000000000.000000      17.639845      29.850535       6.748460       0.000000     -28.588494     -67.932182 
  115000     117.209082      24.337238      18.517035      42.854272       0.001102 8000000000.000000      17.736045      25.878910       7.693487       0.000000     -26.971205     -67.519605 
  116000      97.228394      24.824836      15.360427      40.185263      -0.000859 8000000000.000000      21.147578      27.601729       7.229866       0.000000     -31.154336     -68.993932 
  117000      87.017189      26.286721      13.747231      40.033951      -0.000027 8000000000.000000      17.826633      32.222419       8.025256       0.000000     -31.787587     -71.033686 
  118000     115.954947      26.247676      18.318903      44.566578       0.000229 8000000000.000000      17.653031      30.176079       7.268536       0.000000     -28.849970     -68.836718 
  119000     106.689692      24.454805      16.855150      41.309956      -0.000358 8000000000.000000      18.752962      33.435011       6.760387       0.000000     -34.493554     -68.567828 
  120000     105.455580      25.006791      16.660182      41.666973       0.000631 8000000000.000000      17.115665      27.983015       7.361219       0.000000     -27.453108     -69.532997 
  121000     127.362891      26.706761      20.121163      46.827924       0.000237 8000000000.000000      21.531727      29.804245       7.486299       0.000000     -32.115510     -71.509006 
  122000      87.599874      26.090911      13.839285      39.930196       0.000092 8000000000.000000      18.918873      27.797574       7.055207       0.000000     -27.680743     -68.007459 
  123000     109.784758      22.241162      17.344118      39.585279      -0.000237 8000000000.000000      17.420896      27.823900       7.482952       0.000000     -30.486587     -71.574205 
  124000     103.725518      27.969429      16.386862      44.356291      -0.000466 8000000000.000000      20.510275      29.199040       7.675336       0.000000     -29.415221     -68.154986 
  125000      93.651645      25.045441      14.795362      39.840802       0.000654 8000000000.000000      16.867026      27.767259       7.406864       0.000000     -26.995707     -69.428624 
  126000     101.591486      24.174819      16.049721      40.224539      -0.000208 8000000000.000000      19.393103      28.152720       8.204138       0.000000     -31.575143     -72.464260 
  127000     103.536529      27.375200      16.357005      43.732204       0.000661 8000000000.000000      17.772325      30.156677       7.903636       0.000000     -28.457439     -69.103279 
  128000      93.972835      24.923598      14.846104      39.769702       0.000019 8000000000.000000      16.572983      29.607090       7.164429       0.000000     -28.420905     -69.950195 
  129000      94.902035      26.999372      14.992902      41.992274       0.000872 8000000000.000000      14.749134      27.639975       7.215216       0.000000     -22.604953     -64.167749 
  130000     115.634234      25.370485      18.268235      43.638720       0.000389 8000000000.000000      18.870809      25.645135       7.317519       0.000000     -26.462979     -68.710340 
  131000      97.189323      25.699278      15.354254      41.053532      -0.000147 8000000000.000000      19.926326      29.548092       8.133444       0.000000     -31.908584     -68.637177 
  132000     103.159649      25.497789      16.297464      41.795253      -0.000626 8000000000.000000      21.219685      27.243618       7.947982       0.000000     -30.913497     -69.696409 
  133000      90.404319      24.096825      14.282339      38.379164       0.000298 8000000000.000000      15.225380      32.911480       6.593792       0.000000     -30.633827     -70.667561 
  134000     108.915604      25.327068      17.206807      42.533874      -0.000484 8000000000.000000      17.149429      31.120097       8.809913       0.000000     -31.752371     -66.501666 
  135000      86.317430      27.851819      13.636681      41.488500      -0.000252 8000000000.000000      22.527795      29.308883       7.320748       0.000000     -31.305608     -69.169091 
  136000      85.883562      27.202833      13.568137      40.770970       0.000437 8000000000.000000      15.942374      26.696310       7.273435       0.000000     -22.709285     -66.759722 
  137000      89.594186      26.409309      14.154352      40.563661      -0.000184 8000000000.000000      20.230622      29.036903       8.073082       0.000000     -30.931299     -69.760815 
  138000      90.597523      24.315704      14.312862      38.628566       0.000280 8000000000.000000      19.591082      29.312840       6.812276       0.000000     -31.400495     -73.286709 
  139000      90.485683      28.813585      14.295194      43.108778       0.000114 8000000000.000000      18.509320      33.237171       7.273789       0.000000     -30.206695     -67.925693 
  140000     124.281134      25.143034      19.634298      44.777332      -0.000160 8000000000.000000      19.794178      24.709938       7.907941       0.000000     -27.269023     -68.896788 
  141000      88.682944      25.553718      14.010392      39.564109      -0.000636 8000000000.000000      18.550469      31.742167       8.063645       0.000000     -32.802563     -67.804042 
  142000      91.195331      28.145528      14.407306      42.552834       0.000766 8000000000.000000      15.921727      30.708597       7.253313       0.000000     -25.738109     -68.686030 
  143000     100.489909      24.306257      15.875690      40.181948       0.000388 8000000000.000000      15.678465      24.648484       8.088528       0.000000     -24.109220     -67.154448 
  144000     103.454195      26.084938      16.343997      42.428935      -0.000338 8000000000.000000      19.634182      26.854398       7.776833       0.000000     -28.180475     -69.715941 
  145000      89.133197      25.309008      14.081524      39.390532      -0.000273 8000000000.000000      21.543809      27.141383       7.596633       0.000000     -30.972817     -64.932667 
  146000     120.673867      26.914454      19.064411      45.978866       0.000810 8000000000.000000      16.983806      29.935421       7.910357       0.000000     -27.915130     -66.267066 
  147000     104.120829      25.670410      16.449314      42.119724      -0.000189 8000000000.000000      18.732023      32.310864       8.482507       0.000000     -33.854985     -71.569290 
  148000     105.796839      25.143819      16.714095      41.857914      -0.000407 8000000000.000000      14.482141      31.311447       7.985014       0.000000     -28.634783     -68.864471 
  149000     105.205970      23.204667      16.620748      39.825415      -0.000153 8000000000.000000      18.234009      26.438132       7.240430       0.000000     -28.707903     -70.334412 
  150000      94.633839      30.515691      14.950531      45.466223      -0.000222 8000000000.000000      23.634694      31.113030       8.494042       0.000000     -32.726075     -66.409446 
  151000      92.354130      25.698432      14.590376      40.288809       0.000025 8000000000.000000      18.008904      29.564860       7.179183       0.000000     -29.054515     -67.044037 
  152000     119.039612      27.646043      18.806227      46.452270       0.000643 8000000000.000000      18.462929      25.565775       8.635338       0.000000     -25.018000     -69.889885 
  153000     104.105752      24.750489      16.446932      41.197421      -0.000034 8000000000.000000      18.882573      29.510351       8.077473       0.000000     -31.719909     -72.023009 
  154000      88.716470      27.097448      14.015688      41.113136      -0.000637 8000000000.000000      22.034733      27.683977       6.793182       0.000000     -29.414445     -70.014339 
  155000      88.150455      24.560115      13.926267      38.486383      -0.000248 8000000000.000000      18.974667      27.353386       7.236407       0.000000     -29.004345     -68.249871 
  156000      95.597936      27.129761      15.102842      42.232603      -0.000504 8000000000.000000      22.908456      28.945965       7.453714       0.000000     -32.178373     -70.840084 
  157000      88.116718      23.505514      13.920938      37.426451      -0.000558 8000000000.000000      16.620819      27.445529       7.700534       0.000000     -28.261367     -65.723430 
  158000     105.811401      24.276096      16.716395      40.992491       0.000026 8000000000.000000      17.881461      30.276289       7.407282       0.000000     -31.288936     -72.685562 
  159000     100.521845      28.958327      15.880736      44.839063       0.000198 8000000000.000000      19.724693      30.518507       8.066840       0.000000     -29.351713     -69.067349 
  160000      86.879620      26.093487      13.725497      39.818984      -0.000041 8000000000.000000      19.543645      25.933871       7.931348       0.000000     -27.315377     -67.333016 
  161000      87.001378      27.702734      13.744733      41.447467      -0.000145 8000000000.000000      20.823164      33.242107       7.720646       0.000000     -34.083183     -72.195313 
  162000      84.613581      22.850798      13.367502      36.218300      -0.000459 8000000000.000000      19.711649      26.534079       7.730794       0.000000     -31.125724     -70.951639 
  163000     115.069034      26.678995      18.178943      44.857938       0.000055 8000000000.000000      17.978722      27.725033       7.605016       0.000000     -26.629777     -67.399280 
  164000      97.566283      27.508471      15.413807      42.922278       0.000044 8000000000.000000      15.400586      31.636634       8.787310       0.000000     -28.316059     -67.728724 
  165000      78.680758      25.195624      12.430217      37.625840      -0.000022 8000000000.000000      16.634028      36.312719       7.204565       0.000000     -34.955688     -70.796078 
  166000     115.929941      26.594995      18.314952      44.909947      -0.000189 8000000000.000000      18.756871      30.039899       8.743222       0.000000     -30.944997     -69.321622 
  167000      91.794087      27.607650      14.501899      42.109549       0.000324 8000000000.000000      21.049404      29.038872       8.110566       0.000000     -30.591193     -69.988845 
  168000     116.799463      26.192135      18.452322      44.644457      -0.000069 8000000000.000000      19.931694      29.976228       7.306261       0.000000     -31.022048     -69.503629 
  169000     102.222172      25.726362      16.149359      41.875720      -0.000059 8000000000.000000      18.837768      27.495216       7.516010       0.000000     -28.122632     -67.180275 
  170000     117.794924      26.704119      18.609587      45.313706       0.000000 8000000000.000000      16.966242      31.808431       7.432738       0.000000     -29.503292     -68.962314 
  171000      94.390008      26.118667      14.912010      41.030678       0.000093 8000000000.000000      17.969905      28.378547       6.580169       0.000000     -26.809954     -65.685983 
  172000      99.991499      25.692633      15.796950      41.489583       0.000060 8000000000.000000      17.812545      27.620703       6.316793       0.000000     -26.057408     -70.534741 
  173000     105.742282      22.488307      16.705476      39.193783      -0.000013 8000000000.000000      18.358366      23.273340       7.295547       0.000000     -26.438946     -65.367970 
  174000     106.199707      27.587897      16.777741      44.365638      -0.000015 8000000000.000000      17.505329      34.984577       6.809188       0.000000     -31.711197     -67.377947 
  175000     102.490710      27.311823      16.191783      43.503606       0.000077 8000000000.000000      20.114207      25.592215       8.494205       0.000000     -26.888803     -69.166857 
  176000     119.502800      29.350693      18.879403      48.230096       0.000026 8000000000.000000      22.522265      25.806830       8.525815       0.000000     -27.504217     -68.921216 
  177000      79.795648      28.794352      12.606351      41.400703       0.000368 8000000000.000000      21.573809      28.038148       9.256592       0.000000     -30.074197     -72.556473 
  178000      71.116709      24.926731      11.235226      36.161958      -0.000059 8000000000.000000      17.544579      29.194158       7.922387       0.000000     -29.734393     -69.315810 
  179000     100.076353      26.097393      15.810356      41.907748      -0.000045 8000000000.000000      17.305325      31.604783       7.284869       0.000000     -30.097585     -68.768952 
  180000      97.001726      23.238423      15.324617      38.563040      -0.000118 8000000000.000000      16.125665      29.682214       6.362892       0.000000     -28.932348     -70.573362 
  181000     112.690005      31.141318      17.803097      48.944415      -0.000717 8000000000.000000      20.343339      30.305587       8.628608       0.000000     -28.136216     -67.512110 
  182000     122.371279      25.733684      19.332573      45.066257       0.000874 8000000000.000000      15.980203      30.936129       7.440082       0.000000     -28.622730     -70.346644 
  183000      86.271852      27.019197      13.629480      40.648677       0.000326 8000000000.000000      17.385400      24.510284       8.109651       0.000000     -22.986139     -64.752008 
  184000     124.460347      29.908115      19.662611      49.570725       0.000317 8000000000.000000      16.204586      33.030561       7.583110       0.000000     -26.910143     -69.216806 
  185000     102.286552      25.430397      16.159529      41.589926      -0.000140 8000000000.000000      18.794866      27.762348       8.108748       0.000000     -29.235566     -67.500887 
  186000      82.131306      24.286050      12.975345      37.261395       0.000134 8000000000.000000      15.557842      29.558484       7.962806       0.000000     -28.793083     -69.154476 
  187000      99.947359      26.857099      15.789977      42.647076       0.000246 8000000000.000000      18.269844      28.352206       7.312722       0.000000     -27.077672     -70.117807 
  188000      97.003181      25.051063      15.324847      40.375910       0.001111 8000000000.000000      16.995586      26.399685       6.694550       0.000000     -25.038757     -67.544545 
  189000     107.292723      24.728456      16.950419      41.678875      -0.000272 8000000000.000000      19.210733      28.721022       6.097294       0.000000     -29.300593     -65.683893 
  190000      81.858880      26.420025      12.932306      39.352331      -0.000174 8000000000.000000      22.715494      24.386366       6.317726       0.000000     -26.999561     -66.637567 
  191000      96.735007      26.254797      15.282480      41.537277      -0.000408 8000000000.000000      22.704663      23.290378       7.695478       0.000000     -27.435722     -69.749645 
  192000     114.824524      27.374471      18.140315      45.514786       0.000198 8000000000.000000      16.932843      27.389990       8.972630       0.000000     -25.920993     -66.797737 
  193000      89.744971      27.914349      14.178174      42.092523       0.001047 8000000000.000000      14.886869      31.776150       7.009107       0.000000     -25.757777     -67.976489 
  194000      92.262401      24.879068      14.575885      39.454953       0.000036 8000000000.000000      14.496472      29.398149       8.346200       0.000000     -27.361753     -68.800559 
  195000      87.784749      26.449909      13.868492      40.318401      -0.000386 8000000000.000000      23.613560      26.213142       7.535436       0.000000     -30.912229     -66.582649 
  196000      99.171320      28.632635      15.667376      44.300011      -0.000110 8000000000.000000      20.676333      30.122418       7.052564       0.000000     -29.218680     -66.479577 
  197000     109.428607      24.533633      17.287852      41.821485       0.000156 8000000000.000000      16.493287      31.251272       6.725523       0.000000     -29.936449     -67.524364 
  198000      72.118955      24.597769      11.393564      35.991333      -0.000543 8000000000.000000      18.525515      30.267610       7.135396       0.000000     -31.330752     -69.558701 
  199000      97.899724      28.606483      15.466486      44.072968       0.000260 8000000000.000000      18.483020      34.407600       8.270876       0.000000     -32.555014     -74.686261 
  200000     103.294462      23.541809      16.318762      39.860571      -0.000356 8000000000.000000      20.562222      30.145030       7.305226       0.000000     -34.470669     -73.322166 
  201000      92.034557      24.503383      14.539889      39.043272       0.000492 8000000000.000000      14.589884      29.965604       7.295029       0.000000     -27.347135     -67.124550 
  202000      99.289209      25.631428      15.686000      41.317428       0.000533 8000000000.000000      15.888129      29.862893       8.314483       0.000000     -28.434077     -70.349074 
  203000     117.000114      29.959325      18.484021      48.443346      -0.000603 8000000000.000000      20.932924      29.580252       8.751615       0.000000     -29.305467     -65.746398 
  204000      86.244577      27.312142      13.625171      40.937313       0.001072 8000000000.000000      16.390391      29.430442       7.452659       0.000000     -25.961349     -70.260296 
  205000     102.342304      27.672646      16.168337      43.840983      -0.000454 8000000000.000000      22.210866      34.592975       6.680237       0.000000     -35.811432     -72.856872 
  206000      77.028954      24.786033      12.169260      36.955293       0.000281 8000000000.000000      15.174583      33.535528       7.294683       0.000000     -31.218761     -72.969089 
  207000     111.159784      24.569064      17.561349      42.130413       0.000455 8000000000.000000      17.980012      30.139413       6.909410       0.000000     -30.459771     -70.588965 
  208000      77.414326      28.163433      12.230142      40.393576       0.000045 8000000000.000000      20.867246      27.660529       6.869314       0.000000     -27.233655     -68.186909 
  209000     103.305720      28.382072      16.320541      44.702613      -0.000383 8000000000.000000      17.855537      32.094739       7.385224       0.000000     -28.953427     -70.604937 
  210000     108.035719      24.239709      17.067800      41.307508       0.000105 8000000000.000000      15.425305      31.894895       7.458070       0.000000     -30.538562     -71.266840 
  211000      90.194703      28.650852      14.249224      42.900076      -0.000629 8000000000.000000      23.395598      31.694341       7.811425       0.000000     -34.250512     -75.609373 
  212000      63.130616      25.844197       9.973560      35.817757       0.000185 8000000000.000000      20.332207      23.337272       8.180757       0.000000     -26.006039     -66.998912 
  213000     107.156369      25.105785      16.928877      42.034662       0.000142 8000000000.000000      18.907355      28.325769       7.608848       0.000000     -29.736187     -67.952846 
  214000      93.899530      26.560119      14.834523      41.394642      -0.000684 8000000000.000000      22.544859      26.893272       8.406528       0.000000     -31.284541     -71.318410 
  215000      92.210971      23.371748      14.567760      37.939508      -0.000144 8000000000.000000      16.920280      26.374531       7.746070       0.000000     -27.669134     -65.880559 
  216000      80.887982      28.567688      12.778921      41.346608      -0.000343 8000000000.000000      20.410749      28.561656       6.802887       0.000000     -27.207604     -69.350973 
  217000      92.525624      25.969969      14.617469      40.587439      -0.000038 8000000000.000000      17.677173      32.715222       7.610359       0.000000     -32.032785     -70.692362 
  218000      94.360724      23.998438      14.907384      38.905822       0.000151 8000000000.000000      18.815434      29.909603       7.322086       0.000000     -32.048685     -74.894794 
  219000      98.189693      28.933537      15.512296      44.445833      -0.000408 8000000000.000000      22.799874      32.187643       6.745607       0.000000     -32.799587     -75.923187 
  220000     100.442565      24.498166      15.868211      40.366378       0.000118 8000000000.000000      13.947391      31.280920       6.808826       0.000000     -27.538970     -66.805223 
  221000      98.947697      28.479153      15.632047      44.111200      -0.000619 8000000000.000000      25.198406      29.310012       6.953005       0.000000     -32.982270     -70.929525 
  222000      93.679998      25.347104      14.799841      40.146944       0.000380 8000000000.000000      16.044548      31.153952       6.955977       0.000000     -28.807373     -67.882249 
  223000      90.706538      26.785689      14.330085      41.115774      -0.000248 8000000000.000000      20.825248      28.235161       7.744684       0.000000     -30.019404     -70.413475 
  224000      93.807763      25.020976      14.820026      39.841002       0.000801 8000000000.000000      14.865614      30.911172       6.743495       0.000000     -27.499304     -72.121515 
  225000     100.032263      22.147115      15.803390      37.950506       0.000025 8000000000.000000      16.516000      26.814906       7.142196       0.000000     -28.325986     -69.227563 
  226000      91.915376      23.764188      14.521061      38.285248      -0.000451 8000000000.000000      17.287342      28.346302       7.096587       0.000000     -28.966042     -67.915973 
  227000      82.458898      25.878138      13.027098      38.905237       0.000731 8000000000.000000      14.887823      31.841102       7.503734       0.000000     -28.354521     -69.385245 
  228000      93.638208      28.348045      14.793239      43.141284       0.000226 8000000000.000000      18.893768      29.802237       7.995324       0.000000     -28.343284     -69.071089 
  229000     105.743575      22.767496      16.705680      39.473176      -0.000069 8000000000.000000      16.183736      31.330649       7.253109       0.000000     -31.999998     -70.105685 
  230000     109.480194      30.139651      17.296002      47.435653      -0.000480 8000000000.000000      24.099166      30.943832       8.346815       0.000000     -33.250162     -69.483516 
  231000      93.492537      26.314808      14.770225      41.085033      -0.000544 8000000000.000000      23.540833      26.807148       7.519235       0.000000     -31.552408     -71.339780 
  232000      98.303417      25.174464      15.530262      40.704727      -0.000334 8000000000.000000      19.014708      28.579319       8.959825       0.000000     -31.379387     -68.140547 
  233000     110.955939      25.330477      17.529145      42.859622       0.000550 8000000000.000000      16.643644      32.371519       7.312542       0.000000     -30.997228     -70.291121 
  234000     115.410652      28.348632      18.232913      46.581546      -0.000072 8000000000.000000      22.258290      30.363204       6.780745       0.000000     -31.053607     -70.209888 
  235000      91.210864      25.124283      14.409760      39.534043       0.000599 8000000000.000000      14.424869      30.704167       7.937738       0.000000     -27.942491     -67.585387 
  236000      97.084912      28.746636      15.337759      44.084395      -0.000788 8000000000.000000      22.527234      29.502531       7.717459       0.000000     -31.000588     -68.416613 
  237000      90.276447      28.184299      14.262138      42.446437       0.000119 8000000000.000000      18.488297      32.464025       7.030006       0.000000     -29.798029     -68.746316 
  238000      80.150474      24.434117      12.662407      37.096524      -0.000514 8000000000.000000      20.885811      26.967036       6.613707       0.000000     -30.032436     -68.276759 
  239000      99.402863      26.660965      15.703956      42.364921       0.000126 8000000000.000000      20.013052      27.854114       6.825035       0.000000     -28.031236     -70.839153 
  240000      94.613735      26.196189      14.947355      41.143544      -0.000239 8000000000.000000      18.359930      29.832957       7.318762       0.000000     -29.315461     -67.937910 
  241000     102.463833      28.394644      16.187537      44.582181       0.000624 8000000000.000000      17.632029      30.024469       7.392187       0.000000     -26.654040     -69.798348 
  242000     104.405834      24.269748      16.494340      40.764088       0.000624 8000000000.000000      17.157204      27.612922       6.377137       0.000000     -26.877515     -68.810364 
  243000     108.116202      23.989037      17.080515      41.069552       0.000110 8000000000.000000      19.031337      23.711132       7.724739       0.000000     -26.478172     -69.798707 
  244000     112.533378      25.581579      17.778353      43.359932      -0.000248 8000000000.000000      18.148856      29.668893       7.619881       0.000000     -29.856051     -69.571799 
  245000     106.913257      23.852028      16.890470      40.742498      -0.000086 8000000000.000000      17.857416      28.269498       7.172275       0.000000     -29.447161     -69.856336 
  246000      94.422190      24.490470      14.917095      39.407564      -0.000158 8000000000.000000      15.233010      30.789492       8.118770       0.000000     -29.650803     -66.781467 
  247000      90.725120      27.305688      14.333021      41.638708      -0.000394 8000000000.000000      22.470562      26.241446       7.931163       0.000000     -29.337483     -68.949711 
  248000      94.855333      24.131749      14.985524      39.117272       0.000090 8000000000.000000      17.565110      30.427979       6.713019       0.000000     -30.574359     -67.668840 
  249000     100.604592      26.336868      15.893809      42.230677      -0.000555 8000000000.000000      21.875602      27.195788       8.509992       0.000000     -31.244514     -68.284820 
  250000     106.513116      26.476568      16.827254      43.303823       0.000030 8000000000.000000      18.409631      29.518175       7.979093       0.000000     -29.430330     -68.310766 
  251000      93.341967      26.313744      14.746438      41.060182      -0.000860 8000000000.000000      22.110809      27.129209       7.942695       0.000000     -30.868969     -68.300555 
  252000     105.327934      26.339908      16.640016      42.979924       0.000181 8000000000.000000      18.338047      35.173882       6.520929       0.000000     -33.692950     -71.802906 
  253000      81.130023      24.492066      12.817159      37.309225       0.000537 8000000000.000000      16.686053      23.804666       7.488643       0.000000     -23.487295     -67.950227 
  254000      92.125402      27.709699      14.554241      42.263940      -0.000055 8000000000.000000      19.343368      26.175940       7.133756       0.000000     -24.943364     -64.214875 
  255000      93.328000      25.837710      14.744231      40.581941       0.000211 8000000000.000000      19.459761      28.167995       7.214604       0.000000     -29.004651     -72.641085 
  256000      89.713431      25.763726      14.173191      39.936917      -0.000398 8000000000.000000      15.376881      32.472861       6.907880       0.000000     -28.993896     -65.751044 
  257000     104.860640      28.458854      16.566191      45.025046       0.000519 8000000000.000000      18.694369      29.649631       8.211259       0.000000     -28.096405     -70.483392 
  258000      99.703367      23.853827      15.751430      39.605258      -0.000109 8000000000.000000      21.134416      28.140626       7.239746       0.000000     -32.660961     -69.027341 
  259000      92.278056      26.412821      14.578358      40.991179      -0.000388 8000000000.000000      20.534982      28.117813       7.487238       0.000000     -29.727212     -66.989621 
  260000     108.648227      25.006138      17.164566      42.170703      -0.000225 8000000000.000000      22.890148      28.121187       7.755023       0.000000     -33.760220     -72.143462 
  261000      94.963462      23.352386      15.002606      38.354992      -0.000229 8000000000.000000      18.074325      29.096402       7.057291       0.000000     -30.875632     -69.574046 
  262000      95.290823      29.180389      15.054324      44.234713       0.000199 8000000000.000000      18.748748      26.924155       6.461343       0.000000     -22.953857     -67.257414 
  263000      89.160251      28.167457      14.085798      42.253255       0.000068 8000000000.000000      17.644096      31.448362       6.111913       0.000000     -27.036915     -69.677161 
  264000      83.924732      28.015517      13.258675      41.274192      -0.000682 8000000000.000000      20.544106      29.895635       6.974222       0.000000     -29.398447     -66.147478 
  265000      97.341496      28.278359      15.378295      43.656654       0.000017 8000000000.000000      20.188759      29.972827       7.834542       0.000000     -29.717770     -70.057155 
  266000      90.488140      26.560482      14.295582      40.856064       0.000019 8000000000.000000      19.759016      31.390431       7.907392       0.000000     -32.496356     -70.128318 
  267000     109.131105      25.869410      17.240852      43.110262       0.000189 8000000000.000000      20.458271      30.541818       7.373686       0.000000     -32.504366     -68.371762 
  268000      91.460190      21.185269      14.449149      35.634418      -0.000191 8000000000.000000      19.762912      24.967892       7.629174       0.000000     -31.174709     -68.623150 
  269000     102.045188      26.065607      16.121398      42.187005       0.000022 8000000000.000000      18.901323      29.918421       9.345135       0.000000     -32.099273     -71.464430 
  270000      77.619177      24.975388      12.262505      37.237893      -0.000254 8000000000.000000      23.926193      26.096688       8.039837       0.000000     -33.087331     -68.875363 
  271000     111.442355      26.871949      17.605990      44.477939       0.000687 8000000000.000000      19.645790      27.876020       7.315625       0.000000     -27.965486     -66.992189 
  272000     102.289013      24.785341      16.159918      40.945260       0.000370 8000000000.000000      18.664543      27.532533       7.446111       0.000000     -28.857846     -68.361872 
  273000      99.921299      23.738813      15.785860      39.524673       0.000138 8000000000.000000      15.633566      29.632576       7.558697       0.000000     -29.086027     -70.866105 
  274000     108.296752      25.845332      17.109038      42.954370       0.000707 8000000000.000000      14.013537      33.588005       7.496675       0.000000     -29.252885     -70.199144 
  275000     102.707980      25.735461      16.226108      41.961568       0.000324 8000000000.000000      16.691426      25.917108       7.632449       0.000000     -24.505522     -69.307371 
  276000      98.751360      22.320134      15.601029      37.921163      -0.000060 8000000000.000000      17.961162      25.385367       6.762472       0.000000     -27.788867     -68.208310 
  277000     110.706723      25.360786      17.489773      42.850559      -0.000267 8000000000.000000      16.880254      27.536987       6.963192       0.000000     -26.019646     -66.817974 
  278000     117.136912      22.603157      18.505633      41.108790      -0.000026 8000000000.000000      18.137740      22.819786       7.174568       0.000000     -25.528937     -66.265455 
  279000      87.454970      27.838025      13.816393      41.654417      -0.000914 8000000000.000000      21.331654      28.947892       7.203495       0.000000     -29.645017     -69.922393 
  280000     114.103414      27.417024      18.026392      45.443416       0.000130 8000000000.000000      17.576537      29.730051       7.346449       0.000000     -27.236013     -71.771587 
  281000      87.141936      27.324143      13.766939      41.091082       0.000877 8000000000.000000      16.274768      28.862575       7.483452       0.000000     -25.296652     -63.812776 
  282000     103.965329      24.708812      16.424748      41.133559      -0.000299 8000000000.000000      17.764624      27.376044       6.509984       0.000000     -26.941841     -66.515578 
  283000     112.493206      23.431734      17.772007      41.203741      -0.000314 8000000000.000000      16.739914      25.522581       8.443523       0.000000     -27.274284     -66.786771 
  284000      91.927771      26.403216      14.523019      40.926235       0.000107 8000000000.000000      20.003739      26.237533       7.861674       0.000000     -27.699731     -66.728625 
  285000     100.891319      26.576647      15.939106      42.515753       0.000604 8000000000.000000      19.425920      30.428536       7.121540       0.000000     -30.399350     -69.340498 
  286000      95.440142      24.985649      15.077913      40.063562      -0.000392 8000000000.000000      20.296370      27.249991       8.705153       0.000000     -31.265866     -70.094318 
  287000     114.875739      28.688268      18.148406      46.836674      -0.000419 8000000000.000000      17.989686      30.620795       8.460987       0.000000     -28.383200     -66.740211 
  288000      92.902066      25.843322      14.676941      40.520263       0.000612 8000000000.000000      14.999586      26.904030       8.297097       0.000000     -24.357392     -67.066514 
  289000      92.081361      25.717027      14.547283      40.264310      -0.000264 8000000000.000000      17.766377      29.409268       7.714259       0.000000     -29.172878     -70.603536 
  290000     115.461089      28.496959      18.240881      46.737840       0.001006 8000000000.000000      16.443551      31.855600       6.723735       0.000000     -26.525928     -62.740234 
  291000      78.687815      26.104029      12.431332      38.535361      -0.000292 8000000000.000000      20.274483      26.307812       8.237211       0.000000     -28.715476     -70.517086 
  292000     113.005094      25.066558      17.852876      42.919434      -0.000111 8000000000.000000      20.134238      29.306989       6.934724       0.000000     -31.309393     -69.975953 
  293000     106.970057      21.245241      16.899443      38.144684      -0.000062 8000000000.000000      16.262271      28.768858       6.567652       0.000000     -30.353540     -69.690706 
  294000      85.438788      27.593310      13.497870      41.091181       0.001075 8000000000.000000      15.909004      30.629367       7.247757       0.000000     -26.192818     -69.562277 
  295000     101.928680      25.609136      16.102992      41.712128      -0.000392 8000000000.000000      17.548562      27.167083       8.080234       0.000000     -27.186743     -66.551388 
  296000      87.011145      23.355437      13.746276      37.101713      -0.000003 8000000000.000000      19.087529      27.159222       6.912640       0.000000     -29.803954     -70.728268 
  297000      94.349060      28.418661      14.905541      43.324202       0.000033 8000000000.000000      18.555129      27.438060       7.791161       0.000000     -25.365688     -67.327599 
  298000      95.161041      23.617494      15.033820      38.651314       0.000243 8000000000.000000      18.187091      27.912917       8.034496       0.000000     -30.517011     -72.318568 
  299000      98.921735      24.923767      15.627946      40.551713      -0.000075 8000000000.000000      17.851791      26.511481       7.759183       0.000000     -27.198688     -65.727393 
  300000      92.730915      27.152785      14.649902      41.802686      -0.000058 8000000000.000000      19.161479      28.823818       7.467244       0.000000     -28.299756     -65.702502 
  301000      90.650971      25.271672      14.321306      39.592978       0.000318 8000000000.000000      17.551795      28.757989       6.923381       0.000000     -27.961493     -68.098737 
  302000      87.849588      23.399049      13.878736      37.277784      -0.000009 8000000000.000000      17.530370      26.555361       7.429751       0.000000     -28.116434     -68.024432 
  303000      95.750624      27.256776      15.126964      42.383740      -0.000371 8000000000.000000      20.884013      28.635067       8.373921       0.000000     -30.636225     -72.056640 
  304000      90.429967      24.772166      14.286391      39.058557      -0.000258 8000000000.000000      16.710046      31.453315       8.519306       0.000000     -31.910501     -68.140020 
  305000     110.371573      24.831016      17.436825      42.267841      -0.000162 8000000000.000000      19.606473      27.219521       7.164589       0.000000     -29.159566     -66.917258 
  306000      87.407199      24.376404      13.808846      38.185250       0.000574 8000000000.000000      18.392462      25.589765       7.423865       0.000000     -27.029688     -70.228878 
  307000     103.488350      25.310833      16.349393      41.660226       0.000074 8000000000.000000      20.258491      30.095579       7.619029       0.000000     -32.662267     -73.921098 
  308000      95.677005      25.617580      15.115334      40.732914       0.000479 8000000000.000000      13.422391      31.253204       7.557434       0.000000     -26.615449     -68.249516 
  309000      88.035808      24.518398      13.908155      38.426553      -0.000112 8000000000.000000      16.870754      28.336308       6.460474       0.000000     -27.149139     -67.834392 
  310000      90.478509      28.184952      14.294060      42.479012      -0.000850 8000000000.000000      20.276025      31.117974       7.469330       0.000000     -30.678378     -69.839424 
  311000      92.688369      26.572600      14.643180      41.215780      -0.000413 8000000000.000000      18.745222      31.838783       9.033067       0.000000     -33.044472     -73.000509 
  312000     106.219913      24.130585      16.780933      40.911518      -0.000035 8000000000.000000      15.485307      28.768197       7.375981       0.000000     -27.498899     -68.269877 
  313000     113.364784      25.044214      17.909701      42.953915       0.000296 8000000000.000000      17.850884      26.303559       7.716815       0.000000     -26.827044     -69.156297 
  314000      92.009426      24.464668      14.535919      39.000587       0.001263 8000000000.000000      13.598933      29.396172       7.121232       0.000000     -25.651668     -67.554098 
  315000      97.850872      24.871031      15.458768      40.329799       0.000052 8000000000.000000      18.241906      29.059965       8.406698       0.000000     -30.837538     -69.009757 
  316000     118.437866      27.331107      18.711161      46.042269      -0.000012 8000000000.000000      15.518409      32.957796       7.899402       0.000000     -29.044500     -70.169598 
  317000      90.281601      25.323057      14.262952      39.586009      -0.000677 8000000000.000000      20.630518      31.047902       7.263353       0.000000     -33.618716     -67.794620 
  318000      97.795962      24.359709      15.450093      39.809802       0.000290 8000000000.000000      17.501487      28.776455       7.587996       0.000000     -29.506228     -71.005209 
  319000     109.283916      26.819633      17.264994      44.084627      -0.000367 8000000000.000000      21.858725      29.519428       7.620479       0.000000     -32.178999     -70.125085 
  320000      95.586370      23.620333      15.101015      38.721348       0.001173 8000000000.000000      15.990533      26.355887       7.489963       0.000000     -26.216049     -65.790342 
  321000      73.969256      25.486071      11.685880      37.171951       0.000013 8000000000.000000      19.865631      25.556254       8.070705       0.000000     -28.006519     -67.099795 
  322000      99.671369      25.374723      15.746375      41.121098      -0.000373 8000000000.000000      19.399363      26.634354       7.705484       0.000000     -28.364478     -66.894554 
  323000      90.824719      26.038567      14.348756      40.387322      -0.000400 8000000000.000000      20.288491      31.711184       6.912839       0.000000     -32.873948     -72.372451 
  324000     112.255181      27.418583      17.734403      45.152986      -0.000271 8000000000.000000      24.009358      25.305574       7.485732       0.000000     -29.382082     -66.070759 
  325000      92.103566      25.322302      14.550792      39.873093      -0.000069 8000000000.000000      18.687120      26.309477       8.473869       0.000000     -28.148164     -69.813060 
  326000      93.170405      22.768310      14.719334      37.487644       0.000108 8000000000.000000      15.945147      28.557449       6.989444       0.000000     -28.723730     -66.444962 
  327000      98.855872      26.448722      15.617541      42.066262       0.000293 8000000000.000000      18.481009      25.629403       6.939628       0.000000     -24.601318     -68.259242 
  328000      94.161280      22.572505      14.875875      37.448380       0.000311 8000000000.000000      16.186937      26.496303       7.400909       0.000000     -27.511645     -68.669885 
  329000     101.086015      25.637711      15.969865      41.607576      -0.000189 8000000000.000000      19.425365      28.310387       7.551914       0.000000     -29.649955     -71.614602 
  330000     101.512591      29.579818      16.037257      45.617074      -0.000127 8000000000.000000      23.230553      25.675678       8.478007       0.000000     -27.804422     -70.659211 
  331000      83.169122      26.270619      13.139302      39.409920       0.000425 8000000000.000000      14.414198      30.948998       7.855109       0.000000     -26.947686     -68.156935 
  332000     113.449346      30.164674      17.923060      48.087734       0.000585 8000000000.000000      19.325608      30.251387       8.607749       0.000000     -28.020070     -72.521966 
  333000     101.346494      23.729085      16.011016      39.740102      -0.000127 8000000000.000000      18.333254      27.532208       7.590070       0.000000     -29.726447     -68.305304 
  334000     100.707184      22.061725      15.910016      37.971742       0.000044 8000000000.000000      18.273989      25.639138       6.852304       0.000000     -28.703705     -68.121518 
  335000      87.304075      28.033438      13.792554      41.825992       0.000288 8000000000.000000      19.049216      28.298613       6.786039       0.000000     -26.100430     -62.582789 
  336000      96.557856      22.807174      15.254493      38.061667       0.000043 8000000000.000000      19.899334      26.828306       7.592240       0.000000     -31.512707     -69.625380 
  337000      94.870708      26.218879      14.987953      41.206831       0.000008 8000000000.000000      18.707759      31.155637       7.545017       0.000000     -31.189534     -72.945859 
  338000      94.966962      24.368385      15.003159      39.371544      -0.000211 8000000000.000000      18.076726      25.997874       6.663733       0.000000     -26.369949     -68.144528 
  339000      92.240886      27.028947      14.572486      41.601433       0.000195 8000000000.000000      18.151710      28.528659       7.915907       0.000000     -27.567329     -64.992830 
  340000     106.193956      24.634831      16.776833      41.411664      -0.000553 8000000000.000000      21.118458      27.779036       6.828909       0.000000     -31.091571     -69.376777 
  341000     123.392588      24.759548      19.493923      44.253471       0.000170 8000000000.000000      17.890405      27.772760       8.763435       0.000000     -29.667052     -71.106402 
  342000      90.424664      26.238242      14.285554      40.523796      -0.000148 8000000000.000000      22.941347      27.529721       9.011755       0.000000     -33.244581     -71.562742 
  343000      82.295215      27.240147      13.001239      40.241386      -0.000287 8000000000.000000      19.336381      33.254134       7.479183       0.000000     -32.829551     -67.405244 
  344000      84.686135      25.208455      13.378964      38.587419       0.000176 8000000000.000000      16.530848      26.692364       7.692826       0.000000     -25.707583     -65.114111 
  345000      95.079350      26.045401      15.020915      41.066316      -0.000275 8000000000.000000      18.127342      34.754471       7.166450       0.000000     -34.002862     -72.186097 
  346000     107.992772      26.976644      17.061015      44.037659       0.000330 8000000000.000000      19.491262      27.119068       6.992580       0.000000     -26.626266     -68.205598 
  347000      97.560182      25.181594      15.412844      40.594438       0.000735 8000000000.000000      16.355829      25.234930       7.109291       0.000000     -23.518456     -68.524045 
  348000      92.250489      27.131736      14.574003      41.705739      -0.000325 8000000000.000000      16.381183      31.303714       7.332123       0.000000     -27.885283     -68.361368 
  349000     116.812268      27.192085      18.454345      45.646430      -0.000282 8000000000.000000      19.212360      33.150084       6.390215       0.000000     -31.560574     -71.365591 
  350000     102.431751      22.690139      16.182468      38.872608       0.000281 8000000000.000000      18.075905      27.322834       6.808324       0.000000     -29.516922     -68.504156 
  351000      97.698841      25.997765      15.434749      41.432514      -0.000115 8000000000.000000      23.109258      26.774536       7.096815       0.000000     -30.982844     -70.094985 
  352000      95.518667      26.901762      15.090319      41.992082       0.000061 8000000000.000000      17.969912      30.356838       7.726143       0.000000     -29.151130     -69.355697 
  353000      91.997745      25.549439      14.534074      40.083513      -0.000531 8000000000.000000      22.872376      28.836051       7.076164       0.000000     -33.235151     -70.345322 
  354000     119.328559      24.148730      18.851876      43.000606       0.000102 8000000000.000000      19.926105      24.614059       7.897106       0.000000     -28.288539     -69.293159 
  355000      86.289636      27.264418      13.632290      40.896708      -0.000215 8000000000.000000      21.279363      28.914599       7.675812       0.000000     -30.605356     -70.173662 
  356000     118.756488      25.360499      18.761498      44.121997      -0.000177 8000000000.000000      20.905023      27.283231       7.989652       0.000000     -30.817407     -72.209511 
  357000     104.357594      24.088874      16.486719      40.575593      -0.000066 8000000000.000000      16.892101      30.027978       8.005323       0.000000     -30.836528     -67.199239 
  358000      89.801731      23.683879      14.187141      37.871020       0.000033 8000000000.000000      21.246133      27.103176       7.518713       0.000000     -32.184143     -70.655511 
  359000      82.352908      28.046388      13.010354      41.056742       0.000081 8000000000.000000      18.968976      30.167586       7.760654       0.000000     -28.850828     -66.918451 
  360000      89.614127      24.397147      14.157503      38.554650      -0.001113 8000000000.000000      22.762862      25.765959       8.222314       0.000000     -32.353987     -69.829184 
  361000     119.645518      24.810076      18.901950      43.712026       0.000400 8000000000.000000      17.816795      26.954419       7.275229       0.000000     -27.236366     -66.581431 
  362000     113.192300      22.161152      17.882452      40.043603      -0.000382 8000000000.000000      18.525861      27.520470       6.972550       0.000000     -30.857729     -68.755900 
  363000      96.991810      24.658717      15.323051      39.981767      -0.000992 8000000000.000000      22.531682      25.526141       7.152786       0.000000     -30.551892     -69.616031 
  364000     105.977868      25.410083      16.742694      42.152778       0.001014 8000000000.000000      15.872695      28.566937       7.695968       0.000000     -26.725517     -69.878139 
  365000      98.456354      24.935774      15.554424      40.490198      -0.000070 8000000000.000000      19.992597      24.892175       6.938382       0.000000     -26.887380     -67.647093 
  366000      79.454031      25.917731      12.552381      38.470111      -0.000190 8000000000.000000      16.585284      29.377616       6.498441       0.000000     -26.543611     -63.349058 
  367000      86.650919      25.455754      13.689366      39.145120      -0.000330 8000000000.000000      21.129315      29.046028       6.201460       0.000000     -30.921049     -71.790895 
  368000      85.878298      27.372887      13.567305      40.940192       0.000052 8000000000.000000      15.982480      33.688180       6.552637       0.000000     -28.850410     -67.379696 
  369000      88.528677      23.338513      13.986020      37.324533      -0.000044 8000000000.000000      16.954352      31.097271       6.263722       0.000000     -30.976831     -67.861095 
  370000      95.120364      25.135512      15.027394      40.162906      -0.000305 8000000000.000000      19.273238      28.048517       7.012030       0.000000     -29.198273     -69.006645 
  371000      96.580409      28.503276      15.258056      43.761333       0.000414 8000000000.000000      16.681528      31.967854       7.706044       0.000000     -27.852149     -72.727238 
  372000      94.485549      24.870500      14.927104      39.797604       0.000709 8000000000.000000      15.076373      27.230301       7.646968       0.000000     -25.083142     -66.456081 
  373000      88.117534      25.678299      13.921066      39.599365       0.000133 8000000000.000000      19.898345      25.950581       8.411686       0.000000     -28.582313     -68.516227 
  374000     100.988167      26.393472      15.954407      42.347879       0.000715 8000000000.000000      17.661447      27.491450       7.341926       0.000000     -26.101352     -69.016366 
  375000     100.693080      23.353949      15.907788      39.261737      -0.000425 8000000000.000000      19.044052      27.462236       7.297252       0.000000     -30.449592     -72.001780 
  376000     134.625745      23.980700      21.268570      45.249270       0.000585 8000000000.000000      18.574306      28.055211       6.966416       0.000000     -29.615233     -68.841073 
  377000      85.683848      26.671308      13.536586      40.207894      -0.000482 8000000000.000000      22.460496      25.861025       8.367337       0.000000     -30.017549     -68.002744 
  378000      99.362742      29.172303      15.697617      44.869920       0.000136 8000000000.000000      18.030028      33.464110       9.097378       0.000000     -31.419213     -71.828928 
  379000      96.329605      28.235917      15.218434      43.454351      -0.000003 8000000000.000000      24.532388      24.906494       7.312164       0.000000     -28.515128     -69.194444 
  380000      91.302302      24.488393      14.424205      38.912598       0.000194 8000000000.000000      15.421725      30.205871       7.728979       0.000000     -28.868182     -67.254244 
  381000     119.168515      23.465357      18.826591      42.291949       0.000180 8000000000.000000      15.847639      28.292557       7.803407       0.000000     -28.478247     -70.754788 
  382000     101.015476      25.601089      15.958721      41.559810       0.000410 8000000000.000000      15.120063      28.281976       9.126658       0.000000     -26.927607     -69.963183 
  383000      78.981073      25.360005      12.477662      37.837667       0.000428 8000000000.000000      17.248377      28.249863       7.473344       0.000000     -27.611579     -70.065416 
  384000      74.787958      24.903781      11.815221      36.719002      -0.000483 8000000000.000000      20.783867      31.000952       7.034154       0.000000     -33.915193     -67.672465 
  385000      96.307983      27.326298      15.215018      42.541315       0.000706 8000000000.000000      17.808361      25.484953       8.432285       0.000000     -24.399301     -67.163587 
  386000      99.929168      25.659866      15.787103      41.446969       0.000006 8000000000.000000      17.506761      31.915903       7.632237       0.000000     -31.395035     -70.781466 
  387000      88.868407      26.507132      14.039692      40.546823      -0.000116 8000000000.000000      19.137367      28.107533       8.078265       0.000000     -28.816034     -67.014602 
  388000      94.312398      27.518577      14.899749      42.418327      -0.000713 8000000000.000000      17.577108      29.488720       7.747730       0.000000     -27.294981     -64.518601 
  389000      93.968150      24.416772      14.845364      39.262136       0.000824 8000000000.000000      15.356021      30.043688       6.509831       0.000000     -27.492768     -70.370305 
  390000     102.720087      22.016296      16.228021      38.244316      -0.000030 8000000000.000000      18.137640      24.369489       6.740222       0.000000     -27.231055     -67.214429 
  391000     101.085529      26.685111      15.969788      42.654900       0.000121 8000000000.000000      19.739031      33.645639       8.189044       0.000000     -34.888603     -72.588619 
  392000      93.309941      25.402782      14.741378      40.144160      -0.000182 8000000000.000000      18.153399      26.808531       8.966722       0.000000     -28.525871     -70.042721 
  393000      90.624325      23.366503      14.317097      37.683600      -0.000074 8000000000.000000      16.563709      28.598415       8.195960       0.000000     -29.991580     -69.149771 
  394000      91.686379      27.397766      14.484883      41.882649       0.000070 8000000000.000000      20.659788      30.382546       7.793641       0.000000     -31.438209     -71.191611 
  395000      86.120561      26.078600      13.605579      39.684179       0.000143 8000000000.000000      18.318054      28.595489       7.746660       0.000000     -28.581603     -71.102791 
[...]
 8904000       1.157249      10.173517       0.182826      10.356343      -0.000049 8000000000.000000      13.526280      22.432584       6.938347       0.000000     -32.723695     -71.224946 
 8905000       0.845304      10.182414       0.133544      10.315957       0.000019 8000000000.000000      13.356711      22.905441       6.911539       0.000000     -32.991277     -71.166697 
 8906000       1.102742      10.140468       0.174214      10.314683      -0.000088 8000000000.000000      13.717146      22.184720       6.873107       0.000000     -32.634504     -71.353524 
 8907000       1.124585      10.178366       0.177665      10.356031       0.000031 8000000000.000000      13.385363      22.649137       6.867058       0.000000     -32.723193     -71.325347 
 8908000       1.140929      10.160480       0.180247      10.340727      -0.000014 8000000000.000000      13.515567      22.714358       6.781384       0.000000     -32.850829     -71.513983 
 8909000       0.731734      10.136436       0.115601      10.252038       0.000040 8000000000.000000      13.413326      22.377410       6.769338       0.000000     -32.423638     -71.387018 
 8910000       0.913247      10.166425       0.144277      10.310702      -0.000061 8000000000.000000      13.463753      22.804188       6.823871       0.000000     -32.925386     -71.566886 
 8911000       0.980912      10.151424       0.154967      10.306391      -0.000047 8000000000.000000      13.744047      22.495550       6.834650       0.000000     -32.922823     -71.421649 
 8912000       1.066762      10.161134       0.168530      10.329664       0.000025 8000000000.000000      13.313159      22.570415       6.867132       0.000000     -32.589572     -71.633106 
 8913000       1.037782      10.134206       0.163952      10.298158       0.000017 8000000000.000000      13.402327      22.709173       6.904272       0.000000     -32.881566     -71.282892 
 8914000       0.911465      10.131319       0.143996      10.275315       0.000024 8000000000.000000      13.156048      22.414026       6.924940       0.000000     -32.363696     -71.061986 
 8915000       0.890961      10.131776       0.140757      10.272533      -0.000087 8000000000.000000      13.908738      22.707444       6.875736       0.000000     -33.360141     -71.893127 
 8916000       0.925009      10.158230       0.146136      10.304366      -0.000008 8000000000.000000      13.639661      22.715676       6.891550       0.000000     -33.088657     -71.588656 
 8917000       0.819929      10.110976       0.129535      10.240511      -0.000013 8000000000.000000      13.651390      22.090839       6.864417       0.000000     -32.495669     -71.358853 
 8918000       0.891823      10.150648       0.140893      10.291541       0.000072 8000000000.000000      13.138077      22.828724       6.847247       0.000000     -32.663399     -71.423345 
 8919000       0.882680      10.102277       0.139448      10.241725       0.000000 8000000000.000000      13.610685      22.326258       6.834809       0.000000     -32.669475     -71.570677 
 8920000       0.806876      10.147337       0.127473      10.274810       0.000040 8000000000.000000      13.301525      22.870526       6.975896       0.000000     -33.000610     -71.571718 
 8921000       0.966919      10.165831       0.152757      10.318588      -0.000008 8000000000.000000      13.428228      22.570751       6.960678       0.000000     -32.793827     -71.518843 
 8922000       0.898091      10.115330       0.141883      10.257213       0.000066 8000000000.000000      13.156614      22.227792       6.816732       0.000000     -32.085807     -71.154158 
 8923000       1.050996      10.136543       0.166040      10.302582       0.000013 8000000000.000000      13.452244      22.638540       6.849688       0.000000     -32.803929     -71.444667 
 8924000       0.962712      10.101519       0.152092      10.253611      -0.000010 8000000000.000000      13.741317      22.696564       6.719774       0.000000     -33.056136     -71.618686 
 8925000       0.832084      10.117613       0.131455      10.249068      -0.000046 8000000000.000000      13.569877      22.422775       6.850028       0.000000     -32.725067     -71.616720 
 8926000       0.674229      10.114031       0.106517      10.220548      -0.000076 8000000000.000000      13.514052      22.877943       6.857370       0.000000     -33.135334     -71.512750 
 8927000       0.676203      10.129001       0.106828      10.235830       0.000030 8000000000.000000      13.351302      22.417449       6.755841       0.000000     -32.395590     -71.233888 
 8928000       0.719825      10.133749       0.113720      10.247469      -0.000057 8000000000.000000      13.509855      22.982694       6.872316       0.000000     -33.231116     -71.438915 
 8929000       0.784890      10.088105       0.123999      10.212104       0.000034 8000000000.000000      13.307739      22.583086       6.933950       0.000000     -32.736671     -71.490593 
 8930000       0.879976      10.118833       0.139021      10.257854      -0.000022 8000000000.000000      13.492749      22.420369       6.813116       0.000000     -32.607400     -71.457664 
 8931000       0.679419      10.121214       0.107337      10.228551       0.000027 8000000000.000000      13.398745      22.639803       6.879806       0.000000     -32.797141     -71.520075 
 8932000       0.767591      10.117439       0.121266      10.238705       0.000025 8000000000.000000      13.633116      22.424356       6.787807       0.000000     -32.727839     -71.501302 
 8933000       0.734034      10.110218       0.115965      10.226183       0.000059 8000000000.000000      13.222937      22.578272       6.977400       0.000000     -32.668391     -71.477944 
 8934000       0.940716      10.108352       0.148617      10.256969      -0.000050 8000000000.000000      13.473716      22.777032       6.897759       0.000000     -33.040155     -71.720758 
 8935000       0.692133      10.130888       0.109345      10.240233       0.000037 8000000000.000000      13.309677      22.401022       6.826243       0.000000     -32.406054     -71.416244 
 8936000       0.578005      10.110199       0.091315      10.201514      -0.000036 8000000000.000000      13.514190      22.840873       6.936624       0.000000     -33.181487     -71.574127 
 8937000       0.755631      10.115180       0.119377      10.234557       0.000026 8000000000.000000      13.435151      22.190534       6.883307       0.000000     -32.393812     -71.117295 
 8938000       0.720884      10.093151       0.113887      10.207039       0.000031 8000000000.000000      13.311600      22.725901       6.900556       0.000000     -32.844906     -71.537734 
 8939000       0.651975      10.102753       0.103001      10.205754      -0.000039 8000000000.000000      13.582156      22.751717       6.850662       0.000000     -33.081781     -71.746676 
 8940000       0.797161      10.093934       0.125938      10.219872      -0.000025 8000000000.000000      13.499400      22.446538       6.762023       0.000000     -32.614027     -71.514598 
 8941000       0.646019      10.091714       0.102060      10.193774      -0.000056 8000000000.000000      13.778119      22.639463       6.898707       0.000000     -33.224576     -71.482695 
 8942000       0.782324      10.091900       0.123594      10.215494       0.000042 8000000000.000000      13.248399      22.535825       6.940093       0.000000     -32.632418     -71.207216 
 8943000       0.615613      10.088738       0.097256      10.185994       0.000031 8000000000.000000      13.319180      22.599564       6.790414       0.000000     -32.620421     -71.322809 
 8944000       0.625750      10.088133       0.098858      10.186991      -0.000021 8000000000.000000      13.374579      22.787034       6.835257       0.000000     -32.908737     -71.782777 
 8945000       0.575351      10.082522       0.090896      10.173418      -0.000047 8000000000.000000      13.563295      22.456967       6.802297       0.000000     -32.740037     -71.507258 
 8946000       0.662568      10.092926       0.104674      10.197600      -0.000021 8000000000.000000      13.479236      22.642673       6.865621       0.000000     -32.894604     -71.433414 
 8947000       0.558908      10.074058       0.088298      10.162356      -0.000012 8000000000.000000      13.590425      22.809746       6.806696       0.000000     -33.132809     -71.559365 
 8948000       0.447337      10.083026       0.070672      10.153697       0.000054 8000000000.000000      13.506960      22.202708       6.812174       0.000000     -32.438817     -71.219012 
 8949000       0.675589      10.074693       0.106732      10.181425      -0.000029 8000000000.000000      13.758465      22.782050       6.873569       0.000000     -33.339391     -71.909241 
 8950000       0.532992      10.061133       0.084204      10.145337      -0.000017 8000000000.000000      13.444218      22.251056       6.946432       0.000000     -32.580573     -71.302008 
 8951000       0.556298      10.084209       0.087886      10.172095      -0.000048 8000000000.000000      13.619733      22.573423       6.890879       0.000000     -32.999826     -71.311754 
 8952000       0.462460      10.077744       0.073061      10.150805       0.000008 8000000000.000000      13.249802      22.586791       6.841102       0.000000     -32.599951     -71.397688 
 8953000       0.475984      10.085476       0.075197      10.160673       0.000039 8000000000.000000      13.368351      22.651384       6.819857       0.000000     -32.754116     -71.665127 
 8954000       0.521972      10.083256       0.082463      10.165719       0.000010 8000000000.000000      13.426499      22.397656       6.901927       0.000000     -32.642826     -71.608514 
 8955000       0.560307      10.062369       0.088519      10.150888      -0.000052 8000000000.000000      13.539146      22.585489       6.845273       0.000000     -32.907539     -71.564512 
 8956000       0.479163      10.064349       0.075700      10.140049       0.000002 8000000000.000000      13.399533      22.576393       6.808327       0.000000     -32.719905     -71.417344 
 8957000       0.569411      10.070236       0.089957      10.160193       0.000002 8000000000.000000      13.457158      22.608667       6.924378       0.000000     -32.919967     -71.408899 
 8958000       0.566637      10.052934       0.089519      10.142453       0.000000 8000000000.000000      13.564337      22.348165       6.917148       0.000000     -32.776717     -71.461394 
 8959000       0.413211      10.052657       0.065280      10.117938       0.000004 8000000000.000000      13.574111      22.449420       6.869245       0.000000     -32.840119     -71.524471 
 8960000       0.449571      10.074205       0.071024      10.145230      -0.000010 8000000000.000000      13.426589      22.740439       6.872496       0.000000     -32.965319     -71.577720 
 8961000       0.405290      10.065344       0.064029      10.129373      -0.000007 8000000000.000000      13.608858      22.231836       6.800012       0.000000     -32.575362     -71.251821 
 8962000       0.398704      10.059011       0.062988      10.121999      -0.000045 8000000000.000000      13.487606      22.751425       6.863812       0.000000     -33.043833     -71.581472 
 8963000       0.468942      10.071268       0.074085      10.145353       0.000014 8000000000.000000      13.373393      22.600351       6.921152       0.000000     -32.823627     -71.434291 
 8964000       0.421917      10.053223       0.066656      10.119878       0.000015 8000000000.000000      13.353332      22.526213       6.849867       0.000000     -32.676189     -71.417751 
 8965000       0.266383      10.038601       0.042084      10.080685       0.000001 8000000000.000000      13.418764      22.407846       6.813931       0.000000     -32.601940     -71.340621 
 8966000       0.442643      10.056743       0.069930      10.126674      -0.000036 8000000000.000000      13.643861      22.632565       6.811458       0.000000     -33.031140     -71.694468 
 8967000       0.390684      10.043058       0.061721      10.104779       0.000002 8000000000.000000      13.473124      22.474387       6.867124       0.000000     -32.771578     -71.405246 
 8968000       0.318925      10.055748       0.050385      10.106132      -0.000041 8000000000.000000      13.540973      22.758073       6.790608       0.000000     -33.033906     -71.615331 
 8969000       0.334479      10.042490       0.052842      10.095332       0.000018 8000000000.000000      13.425524      22.289034       6.794007       0.000000     -32.466076     -71.568255 
 8970000       0.320941      10.053760       0.050703      10.104463      -0.000060 8000000000.000000      13.556925      22.763370       6.855383       0.000000     -33.121917     -71.573127 
 8971000       0.319128      10.046332       0.050417      10.096749       0.000028 8000000000.000000      13.455778      22.404740       6.895477       0.000000     -32.709663     -71.529331 
 8972000       0.283565      10.040089       0.044799      10.084888      -0.000043 8000000000.000000      13.656653      22.464936       6.862794       0.000000     -32.944293     -71.391309 
 8973000       0.330822      10.047762       0.052264      10.100026       0.000015 8000000000.000000      13.314786      22.641233       6.876591       0.000000     -32.784848     -71.500576 
 8974000       0.305805      10.036454       0.048312      10.084766       0.000014 8000000000.000000      13.411670      22.341531       6.786643       0.000000     -32.503390     -71.441694 
 8975000       0.273281      10.028993       0.043174      10.072166       0.000010 8000000000.000000      13.432282      22.573508       6.841000       0.000000     -32.817798     -71.649937 
 8976000       0.301266      10.034327       0.047595      10.081922      -0.000009 8000000000.000000      13.534945      22.558574       6.863035       0.000000     -32.922228     -71.589730 
 8977000       0.249854      10.025949       0.039473      10.065421      -0.000008 8000000000.000000      13.458831      22.550812       6.834333       0.000000     -32.818027     -71.569371 
 8978000       0.257885      10.031291       0.040741      10.072033      -0.000021 8000000000.000000      13.408477      22.771699       6.826043       0.000000     -32.974927     -71.476950 
 8979000       0.208324      10.023375       0.032912      10.056286       0.000014 8000000000.000000      13.427168      22.307434       6.883042       0.000000     -32.594269     -71.433408 
 8980000       0.205167      10.020271       0.032413      10.052684      -0.000010 8000000000.000000      13.561248      22.555334       6.889049       0.000000     -32.985360     -71.536126 
 8981000       0.215149      10.019876       0.033990      10.053866      -0.000043 8000000000.000000      13.602961      22.614956       6.856396       0.000000     -33.054438     -71.632902 
 8982000       0.198236      10.030867       0.031318      10.062185      -0.000009 8000000000.000000      13.521977      22.371960       6.844141       0.000000     -32.707212     -71.309448 
 8983000       0.210836      10.013447       0.033308      10.046755      -0.000000 8000000000.000000      13.501722      22.616308       6.849390       0.000000     -32.953974     -71.514695 
 8984000       0.146183      10.016647       0.023094      10.039741       0.000040 8000000000.000000      13.216759      22.501178       6.889172       0.000000     -32.590462     -71.426743 
 8985000       0.188615      10.011732       0.029798      10.041530      -0.000019 8000000000.000000      13.513250      22.513400       6.906452       0.000000     -32.921369     -71.507760 
 8986000       0.164750      10.016722       0.026028      10.042750       0.000027 8000000000.000000      13.282840      22.561387       6.867311       0.000000     -32.694816     -71.419106 
 8987000       0.138630      10.014329       0.021901      10.036231      -0.000022 8000000000.000000      13.494157      22.488723       6.850493       0.000000     -32.819043     -71.558283 
 8988000       0.116528      10.008089       0.018409      10.026499       0.000024 8000000000.000000      13.365437      22.564562       6.886690       0.000000     -32.808599     -71.582818 
 8989000       0.108942      10.006555       0.017211      10.023766       0.000000 8000000000.000000      13.480921      22.404991       6.854701       0.000000     -32.734059     -71.498959 
 8990000       0.111019      10.009794       0.017539      10.027333      -0.000005 8000000000.000000      13.515143      22.465200       6.858014       0.000000     -32.828563     -71.611433 
 8991000       0.120520      10.005378       0.019040      10.024418      -0.000026 8000000000.000000      13.549720      22.609611       6.835463       0.000000     -32.989416     -71.476817 
 8992000       0.090760      10.003975       0.014338      10.018314       0.000012 8000000000.000000      13.371552      22.458282       6.871287       0.000000     -32.697146     -71.350039 
 8993000       0.078536      10.001589       0.012407      10.013996      -0.000009 8000000000.000000      13.493568      22.551683       6.878252       0.000000     -32.921913     -71.535520 
 8994000       0.072190      10.001497       0.011405      10.012902      -0.000001 8000000000.000000      13.376405      22.532087       6.837461       0.000000     -32.744455     -71.494357 
 8995000       0.052666      10.000646       0.008320      10.008966      -0.000008 8000000000.000000      13.468798      22.543356       6.824926       0.000000     -32.836434     -71.454874 
 8996000       0.049089       9.996853       0.007755      10.004608      -0.000009 8000000000.000000      13.430148      22.523402       6.823387       0.000000     -32.780085     -71.470157 
 8997000       0.029387       9.995512       0.004643      10.000154      -0.000002 8000000000.000000      13.438046      22.565392       6.858133       0.000000     -32.866059     -71.526155 
 8998000       0.021597       9.993182       0.003412       9.996594      -0.000006 8000000000.000000      13.474426      22.502599       6.863126       0.000000     -32.846970     -71.540129 
 8999000       0.009338       9.991338       0.001475       9.992813       0.000001 8000000000.000000      13.405098      22.545656       6.839989       0.000000     -32.799405     -71.465437 
 9000000       0.000429       9.989223       0.000068       9.989291       0.000001 8000000000.000000      13.425515      22.510677       6.854277       0.000000     -32.801246     -71.483548 
Loop time of 427.124 on 1 procs for 9000000 steps with 54 atoms

Performance: 1820.551 ns/day, 0.013 hours/ns, 21071.187 timesteps/s
98.2% CPU use with 1 MPI tasks x 1 OpenMP threads

MPI task timing breakdown:
Section |  min time  |  avg time  |  max time  |%varavg| %total
---------------------------------------------------------------
Pair    | 209.27     | 209.27     | 209.27     |   0.0 | 49.00
Bond    | 172.99     | 172.99     | 172.99     |   0.0 | 40.50
Neigh   | 7.1663     | 7.1663     | 7.1663     |   0.0 |  1.68
Comm    | 9.4886     | 9.4886     | 9.4886     |   0.0 |  2.22
Output  | 11.286     | 11.286     | 11.286     |   0.0 |  2.64
Modify  | 14.09      | 14.09      | 14.09      |   0.0 |  3.30
Other   |            | 2.829      |            |       |  0.66

Nlocal:    54 ave 54 max 54 min
Histogram: 1 0 0 0 0 0 0 0 0 0
Nghost:    0 ave 0 max 0 min
Histogram: 1 0 0 0 0 0 0 0 0 0
Neighs:    1255 ave 1255 max 1255 min
Histogram: 1 0 0 0 0 0 0 0 0 0

Total # of neighbors = 1255
Ave neighs/atom = 23.2407
Ave special neighs/atom = 5.44444
Neighbor list builds = 359
Dangerous builds = 0

Please see the log.cite file for references relevant to this simulation

Total wall time: 0:07:07
