252 atoms
1 atom types
Masses
1 12.010000
#simulation box
-1.396000 12.564000 xlo xhi
-0.604486 50.172316 ylo yhi
-2.000000 2.000000 zlo zhi
Atoms
1 1 0.698000 0.000000 0.000000
2 1 0.000000 1.208971 0.000000
3 1 0.698000 2.417943 0.000000
4 1 0.000000 3.626914 0.000000
5 1 0.698000 4.835886 0.000000
6 1 0.000000 6.044857 0.000000
..............................................
.
.
.
250 1 11.168000 47.149887 0.000000
251 1 10.470000 48.358859 0.000000
252 1 11.168000 49.567830 0.000000
