Graphene

400 atoms

1 atom types

-1.42 42.6 xlo xhi
-1.22 24.59 ylo yhi
-2.0 2.0 zlo zhi

Masses
1 12.01

Atoms
1 0 0 0
2 1 1 1
