160 atoms

1 atom types

0.00000  42.60000 xlo xhi
0.00000  08.60804 ylo yhi
-2.000000 2.000000 zlo zhi

Masses

  1 12.011

Atoms

1  1        0.00000        0.00000
2  1        1.42000        0.00000
3  1        2.13000        1.22972
4  1        3.55000        1.22972
5  1        4.26000        0.00000
6  1        5.68000        0.00000
7  1        6.39000        1.22972
8  1        7.81000        1.22972
9  1        8.52000        0.00000
10  1        9.94000        0.00000
11  1       10.65000        1.22972
12  1       12.07000        1.22972
13  1       12.78000        0.00000
14  1       14.20000        0.00000
15  1       14.91000        1.22972
16  1       16.33000        1.22972
17  1       17.04000        0.00000
18  1       18.46000        0.00000
19  1       19.17000        1.22972
20  1       20.59000        1.22972
21  1       21.30000        0.00000
22  1       22.72000        0.00000
23  1       23.43000        1.22972
24  1       24.85000        1.22972
25  1       25.56000        0.00000
26  1       26.98000        0.00000
27  1       27.69000        1.22972
28  1       29.11000        1.22972
29  1       29.82000        0.00000
30  1       31.24000        0.00000
31  1       31.95000        1.22972
32  1       33.37000        1.22972
33  1       34.08000        0.00000
34  1       35.50000        0.00000
35  1       36.21000        1.22972
36  1       37.63000        1.22972
37  1       38.34000        0.00000
38  1       39.76000        0.00000
39  1       40.47000        1.22972
40  1       41.89000        1.22972
41  1        0.00000        2.45944
42  1        1.42000        2.45944
43  1        2.13000        3.68916
44  1        3.55000        3.68916
45  1        4.26000        2.45944
46  1        5.68000        2.45944
47  1        6.39000        3.68916
48  1        7.81000        3.68916
49  1        8.52000        2.45944
50  1        9.94000        2.45944
51  1       10.65000        3.68916
52  1       12.07000        3.68916
53  1       12.78000        2.45944
54  1       14.20000        2.45944
55  1       14.91000        3.68916
56  1       16.33000        3.68916
57  1       17.04000        2.45944
58  1       18.46000        2.45944
59  1       19.17000        3.68916
60  1       20.59000        3.68916
61  1       21.30000        2.45944
62  1       22.72000        2.45944
63  1       23.43000        3.68916
64  1       24.85000        3.68916
65  1       25.56000        2.45944
66  1       26.98000        2.45944
67  1       27.69000        3.68916
68  1       29.11000        3.68916
69  1       29.82000        2.45944
70  1       31.24000        2.45944
71  1       31.95000        3.68916
72  1       33.37000        3.68916
73  1       34.08000        2.45944
74  1       35.50000        2.45944
75  1       36.21000        3.68916
76  1       37.63000        3.68916
77  1       38.34000        2.45944
78  1       39.76000        2.45944
79  1       40.47000        3.68916
80  1       41.89000        3.68916
81  1        0.00000        4.91888
82  1        1.42000        4.91888
83  1        2.13000        6.14860
84  1        3.55000        6.14860
85  1        4.26000        4.91888
86  1        5.68000        4.91888
87  1        6.39000        6.14860
88  1        7.81000        6.14860
89  1        8.52000        4.91888
90  1        9.94000        4.91888
91  1       10.65000        6.14860
92  1       12.07000        6.14860
93  1       12.78000        4.91888
94  1       14.20000        4.91888
95  1       14.91000        6.14860
96  1       16.33000        6.14860
97  1       17.04000        4.91888
98  1       18.46000        4.91888
99  1       19.17000        6.14860
100  1       20.59000        6.14860
101  1       21.30000        4.91888
102  1       22.72000        4.91888
103  1       23.43000        6.14860
104  1       24.85000        6.14860
105  1       25.56000        4.91888
106  1       26.98000        4.91888
107  1       27.69000        6.14860
108  1       29.11000        6.14860
109  1       29.82000        4.91888
110  1       31.24000        4.91888
111  1       31.95000        6.14860
112  1       33.37000        6.14860
113  1       34.08000        4.91888
114  1       35.50000        4.91888
115  1       36.21000        6.14860
116  1       37.63000        6.14860
117  1       38.34000        4.91888
118  1       39.76000        4.91888
119  1       40.47000        6.14860
120  1       41.89000        6.14860
121  1        0.00000        7.37832
122  1        1.42000        7.37832
123  1        2.13000        8.60804
124  1        3.55000        8.60804
125  1        4.26000        7.37832
126  1        5.68000        7.37832
127  1        6.39000        8.60804
128  1        7.81000        8.60804
129  1        8.52000        7.37832
130  1        9.94000        7.37832
131  1       10.65000        8.60804
132  1       12.07000        8.60804
133  1       12.78000        7.37832
134  1       14.20000        7.37832
135  1       14.91000        8.60804
136  1       16.33000        8.60804
137  1       17.04000        7.37832
138  1       18.46000        7.37832
139  1       19.17000        8.60804
140  1       20.59000        8.60804
141  1       21.30000        7.37832
142  1       22.72000        7.37832
143  1       23.43000        8.60804
144  1       24.85000        8.60804
145  1       25.56000        7.37832
146  1       26.98000        7.37832
147  1       27.69000        8.60804
148  1       29.11000        8.60804
149  1       29.82000        7.37832
150  1       31.24000        7.37832
151  1       31.95000        8.60804
152  1       33.37000        8.60804
153  1       34.08000        7.37832
154  1       35.50000        7.37832
155  1       36.21000        8.60804
156  1       37.63000        8.60804
157  1       38.34000        7.37832
158  1       39.76000        7.37832
159  1       40.47000        8.60804
160  1       41.89000        8.60804
