Created by /ul/ajaramil/scripts/createLammpsInput.pl on Tue May  8 00:18:08 2012

          4 atoms

           4 atom types

          -1000 1000 xlo xhi
          -1000 1000 ylo yhi
          -1000 1000 zlo zhi

Masses

    1   1.0080 # H_
    2  12.0110 # C_3
    3  14.0067 # N_3
    4  15.9994 # O_3

Atoms

    1  1        0.00000        0.00000 0.00000
    2  1        1.42000        0.00000 0.00000
    3  1        2.13000        1.22972 0.00000
    4  1        3.55000        1.22972 0.00000
