Graphene test - Adolfo Hoyos
# creatd by Koren Shreiber 14/02/2013
400 atoms
1 atom types
# box bounds
     -1.42000  42.60000 xlo xhi
     -1.22972  24.59440 ylo yhi
     -2.000000 2.000000 zlo zhi

Masses

  1   12.0110

Atoms

  1  1   0.00000    0.00000  0.0000
  2  1   1.42000    0.00000  0.0000
  3  1   2.13000    1.22972  0.0000
  4  1   3.55000    1.22972  0.0000
  5  1   4.26000    0.00000  0.0000
  6  1   5.68000    0.00000  0.0000
  7  1   6.39000    1.22972  0.0000
  8  1   7.81000    1.22972  0.0000
  9  1   8.52000    0.00000  0.0000
  10  1   9.94000    0.00000  0.0000
  11  1  10.65000    1.22972  0.0000
  12  1  12.07000    1.22972  0.0000
  13  1  12.78000    0.00000  0.0000
  14  1  14.20000    0.00000  0.0000
  15  1  14.91000    1.22972  0.0000
  16  1  16.33000    1.22972  0.0000
  17  1  17.04000    0.00000  0.0000
  18  1  18.46000    0.00000  0.0000
  19  1  19.17000    1.22972  0.0000
  20  1  20.59000    1.22972  0.0000
  21  1  21.30000    0.00000  0.0000
  22  1  22.72000    0.00000  0.0000
  23  1  23.43000    1.22972  0.0000
  24  1  24.85000    1.22972  0.0000
  25  1  25.56000    0.00000  0.0000
  26  1  26.98000    0.00000  0.0000
  27  1  27.69000    1.22972  0.0000
  28  1  29.11000    1.22972  0.0000
  29  1  29.82000    0.00000  0.0000
  30  1  31.24000    0.00000  0.0000
  31  1  31.95000    1.22972  0.0000
  32  1  33.37000    1.22972  0.0000
  33  1  34.08000    0.00000  0.0000
  34  1  35.50000    0.00000  0.0000
  35  1  36.21000    1.22972  0.0000
  36  1  37.63000    1.22972  0.0000
  37  1  38.34000    0.00000  0.0000
  38  1  39.76000    0.00000  0.0000
  39  1  40.47000    1.22972  0.0000
  40  1  41.89000    1.22972  0.0000
  41  1   0.00000    2.45944  0.0000
  42  1   1.42000    2.45944  0.0000
  43  1   2.13000    3.68916  0.0000
  44  1   3.55000    3.68916  0.0000
  45  1   4.26000    2.45944  0.0000
  46  1   5.68000    2.45944  0.0000
  47  1   6.39000    3.68916  0.0000
  48  1   7.81000    3.68916  0.0000
  49  1   8.52000    2.45944  0.0000
  50  1   9.94000    2.45944  0.0000
  51  1  10.65000    3.68916  0.0000
  52  1  12.07000    3.68916  0.0000
  53  1  12.78000    2.45944  0.0000
  54  1  14.20000    2.45944  0.0000
  55  1  14.91000    3.68916  0.0000
  56  1  16.33000    3.68916  0.0000
  57  1  17.04000    2.45944  0.0000
  58  1  18.46000    2.45944  0.0000
  59  1  19.17000    3.68916  0.0000
  60  1  20.59000    3.68916  0.0000
  61  1  21.30000    2.45944  0.0000
  62  1  22.72000    2.45944  0.0000
  63  1  23.43000    3.68916  0.0000
  64  1  24.85000    3.68916  0.0000
  65  1  25.56000    2.45944  0.0000
  66  1  26.98000    2.45944  0.0000
  67  1  27.69000    3.68916  0.0000
  68  1  29.11000    3.68916  0.0000
  69  1  29.82000    2.45944  0.0000
  70  1  31.24000    2.45944  0.0000
  71  1  31.95000    3.68916  0.0000
  72  1  33.37000    3.68916  0.0000
  73  1  34.08000    2.45944  0.0000
  74  1  35.50000    2.45944  0.0000
  75  1  36.21000    3.68916  0.0000
  76  1  37.63000    3.68916  0.0000
  77  1  38.34000    2.45944  0.0000
  78  1  39.76000    2.45944  0.0000
  79  1  40.47000    3.68916  0.0000
  80  1  41.89000    3.68916  0.0000
  81  1   0.00000    4.91888  0.0000
  82  1   1.42000    4.91888  0.0000
  83  1   2.13000    6.14860  0.0000
  84  1   3.55000    6.14860  0.0000
  85  1   4.26000    4.91888  0.0000
  86  1   5.68000    4.91888  0.0000
  87  1   6.39000    6.14860  0.0000
  88  1   7.81000    6.14860  0.0000
  89  1   8.52000    4.91888  0.0000
  90  1   9.94000    4.91888  0.0000
  91  1  10.65000    6.14860  0.0000
  92  1  12.07000    6.14860  0.0000
  93  1  12.78000    4.91888  0.0000
  94  1  14.20000    4.91888  0.0000
  95  1  14.91000    6.14860  0.0000
  96  1  16.33000    6.14860  0.0000
  97  1  17.04000    4.91888  0.0000
  98  1  18.46000    4.91888  0.0000
  99  1  19.17000    6.14860  0.0000
  100  1  20.59000    6.14860  0.0000
  101  1  21.30000    4.91888  0.0000
  102  1  22.72000    4.91888  0.0000
  103  1  23.43000    6.14860  0.0000
  104  1  24.85000    6.14860  0.0000
  105  1  25.56000    4.91888  0.0000
  106  1  26.98000    4.91888  0.0000
  107  1  27.69000    6.14860  0.0000
  108  1  29.11000    6.14860  0.0000
  109  1  29.82000    4.91888  0.0000
  110  1  31.24000    4.91888  0.0000
  111  1  31.95000    6.14860  0.0000
  112  1  33.37000    6.14860  0.0000
  113  1  34.08000    4.91888  0.0000
  114  1  35.50000    4.91888  0.0000
  115  1  36.21000    6.14860  0.0000
  116  1  37.63000    6.14860  0.0000
  117  1  38.34000    4.91888  0.0000
  118  1  39.76000    4.91888  0.0000
  119  1  40.47000    6.14860  0.0000
  120  1  41.89000    6.14860  0.0000
  121  1   0.00000    7.37832  0.0000
  122  1   1.42000    7.37832  0.0000
  123  1   2.13000    8.60804  0.0000
  124  1   3.55000    8.60804  0.0000
  125  1   4.26000    7.37832  0.0000
  126  1   5.68000    7.37832  0.0000
  127  1   6.39000    8.60804  0.0000
  128  1   7.81000    8.60804  0.0000
  129  1   8.52000    7.37832  0.0000
  130  1   9.94000    7.37832  0.0000
  131  1  10.65000    8.60804  0.0000
  132  1  12.07000    8.60804  0.0000
  133  1  12.78000    7.37832  0.0000
  134  1  14.20000    7.37832  0.0000
  135  1  14.91000    8.60804  0.0000
  136  1  16.33000    8.60804  0.0000
  137  1  17.04000    7.37832  0.0000
  138  1  18.46000    7.37832  0.0000
  139  1  19.17000    8.60804  0.0000
  140  1  20.59000    8.60804  0.0000
  141  1  21.30000    7.37832  0.0000
  142  1  22.72000    7.37832  0.0000
  143  1  23.43000    8.60804  0.0000
  144  1  24.85000    8.60804  0.0000
  145  1  25.56000    7.37832  0.0000
  146  1  26.98000    7.37832  0.0000
  147  1  27.69000    8.60804  0.0000
  148  1  29.11000    8.60804  0.0000
  149  1  29.82000    7.37832  0.0000
  150  1  31.24000    7.37832  0.0000
  151  1  31.95000    8.60804  0.0000
  152  1  33.37000    8.60804  0.0000
  153  1  34.08000    7.37832  0.0000
  154  1  35.50000    7.37832  0.0000
  155  1  36.21000    8.60804  0.0000
  156  1  37.63000    8.60804  0.0000
  157  1  38.34000    7.37832  0.0000
  158  1  39.76000    7.37832  0.0000
  159  1  40.47000    8.60804  0.0000
  160  1  41.89000    8.60804  0.0000
  161  1   0.00000    9.83776  0.0000
  162  1   1.42000    9.83776  0.0000
  163  1   2.13000   11.06748  0.0000
  164  1   3.55000   11.06748  0.0000
  165  1   4.26000    9.83776  0.0000
  166  1   5.68000    9.83776  0.0000
  167  1   6.39000   11.06748  0.0000
  168  1   7.81000   11.06748  0.0000
  169  1   8.52000    9.83776  0.0000
  170  1   9.94000    9.83776  0.0000
  171  1  10.65000   11.06748  0.0000
  172  1  12.07000   11.06748  0.0000
  173  1  12.78000    9.83776  0.0000
  174  1  14.20000    9.83776  0.0000
  175  1  14.91000   11.06748  0.0000
  176  1  16.33000   11.06748  0.0000
  177  1  17.04000    9.83776  0.0000
  178  1  18.46000    9.83776  0.0000
  179  1  19.17000   11.06748  0.0000
  180  1  20.59000   11.06748  0.0000
  181  1  21.30000    9.83776  0.0000
  182  1  22.72000    9.83776  0.0000
  183  1  23.43000   11.06748  0.0000
  184  1  24.85000   11.06748  0.0000
  185  1  25.56000    9.83776  0.0000
  186  1  26.98000    9.83776  0.0000
  187  1  27.69000   11.06748  0.0000
  188  1  29.11000   11.06748  0.0000
  189  1  29.82000    9.83776  0.0000
  190  1  31.24000    9.83776  0.0000
  191  1  31.95000   11.06748  0.0000
  192  1  33.37000   11.06748  0.0000
  193  1  34.08000    9.83776  0.0000
  194  1  35.50000    9.83776  0.0000
  195  1  36.21000   11.06748  0.0000
  196  1  37.63000   11.06748  0.0000
  197  1  38.34000    9.83776  0.0000
  198  1  39.76000    9.83776  0.0000
  199  1  40.47000   11.06748  0.0000
  200  1  41.89000   11.06748  0.0000
  201  1   0.00000   12.29720  0.0000
  202  1   1.42000   12.29720  0.0000
  203  1   2.13000   13.52692  0.0000
  204  1   3.55000   13.52692  0.0000
  205  1   4.26000   12.29720  0.0000
  206  1   5.68000   12.29720  0.0000
  207  1   6.39000   13.52692  0.0000
  208  1   7.81000   13.52692  0.0000
  209  1   8.52000   12.29720  0.0000
  210  1   9.94000   12.29720  0.0000
  211  1  10.65000   13.52692  0.0000
  212  1  12.07000   13.52692  0.0000
  213  1  12.78000   12.29720  0.0000
  214  1  14.20000   12.29720  0.0000
  215  1  14.91000   13.52692  0.0000
  216  1  16.33000   13.52692  0.0000
  217  1  17.04000   12.29720  0.0000
  218  1  18.46000   12.29720  0.0000
  219  1  19.17000   13.52692  0.0000
  220  1  20.59000   13.52692  0.0000
  221  1  21.30000   12.29720  0.0000
  222  1  22.72000   12.29720  0.0000
  223  1  23.43000   13.52692  0.0000
  224  1  24.85000   13.52692  0.0000
  225  1  25.56000   12.29720  0.0000
  226  1  26.98000   12.29720  0.0000
  227  1  27.69000   13.52692  0.0000
  228  1  29.11000   13.52692  0.0000
  229  1  29.82000   12.29720  0.0000
  230  1  31.24000   12.29720  0.0000
  231  1  31.95000   13.52692  0.0000
  232  1  33.37000   13.52692  0.0000
  233  1  34.08000   12.29720  0.0000
  234  1  35.50000   12.29720  0.0000
  235  1  36.21000   13.52692  0.0000
  236  1  37.63000   13.52692  0.0000
  237  1  38.34000   12.29720  0.0000
  238  1  39.76000   12.29720  0.0000
  239  1  40.47000   13.52692  0.0000
  240  1  41.89000   13.52692  0.0000
  241  1   0.00000   14.75664  0.0000
  242  1   1.42000   14.75664  0.0000
  243  1   2.13000   15.98636  0.0000
  244  1   3.55000   15.98636  0.0000
  245  1   4.26000   14.75664  0.0000
  246  1   5.68000   14.75664  0.0000
  247  1   6.39000   15.98636  0.0000
  248  1   7.81000   15.98636  0.0000
  249  1   8.52000   14.75664  0.0000
  250  1   9.94000   14.75664  0.0000
  251  1  10.65000   15.98636  0.0000
  252  1  12.07000   15.98636  0.0000
  253  1  12.78000   14.75664  0.0000
  254  1  14.20000   14.75664  0.0000
  255  1  14.91000   15.98636  0.0000
  256  1  16.33000   15.98636  0.0000
  257  1  17.04000   14.75664  0.0000
  258  1  18.46000   14.75664  0.0000
  259  1  19.17000   15.98636  0.0000
  260  1  20.59000   15.98636  0.0000
  261  1  21.30000   14.75664  0.0000
  262  1  22.72000   14.75664  0.0000
  263  1  23.43000   15.98636  0.0000
  264  1  24.85000   15.98636  0.0000
  265  1  25.56000   14.75664  0.0000
  266  1  26.98000   14.75664  0.0000
  267  1  27.69000   15.98636  0.0000
  268  1  29.11000   15.98636  0.0000
  269  1  29.82000   14.75664  0.0000
  270  1  31.24000   14.75664  0.0000
  271  1  31.95000   15.98636  0.0000
  272  1  33.37000   15.98636  0.0000
  273  1  34.08000   14.75664  0.0000
  274  1  35.50000   14.75664  0.0000
  275  1  36.21000   15.98636  0.0000
  276  1  37.63000   15.98636  0.0000
  277  1  38.34000   14.75664  0.0000
  278  1  39.76000   14.75664  0.0000
  279  1  40.47000   15.98636  0.0000
  280  1  41.89000   15.98636  0.0000
  281  1   0.00000   17.21608  0.0000
  282  1   1.42000   17.21608  0.0000
  283  1   2.13000   18.44580  0.0000
  284  1   3.55000   18.44580  0.0000
  285  1   4.26000   17.21608  0.0000
  286  1   5.68000   17.21608  0.0000
  287  1   6.39000   18.44580  0.0000
  288  1   7.81000   18.44580  0.0000
  289  1   8.52000   17.21608  0.0000
  290  1   9.94000   17.21608  0.0000
  291  1  10.65000   18.44580  0.0000
  292  1  12.07000   18.44580  0.0000
  293  1  12.78000   17.21608  0.0000
  294  1  14.20000   17.21608  0.0000
  295  1  14.91000   18.44580  0.0000
  296  1  16.33000   18.44580  0.0000
  297  1  17.04000   17.21608  0.0000
  298  1  18.46000   17.21608  0.0000
  299  1  19.17000   18.44580  0.0000
  300  1  20.59000   18.44580  0.0000
  301  1  21.30000   17.21608  0.0000
  302  1  22.72000   17.21608  0.0000
  303  1  23.43000   18.44580  0.0000
  304  1  24.85000   18.44580  0.0000
  305  1  25.56000   17.21608  0.0000
  306  1  26.98000   17.21608  0.0000
  307  1  27.69000   18.44580  0.0000
  308  1  29.11000   18.44580  0.0000
  309  1  29.82000   17.21608  0.0000
  310  1  31.24000   17.21608  0.0000
  311  1  31.95000   18.44580  0.0000
  312  1  33.37000   18.44580  0.0000
  313  1  34.08000   17.21608  0.0000
  314  1  35.50000   17.21608  0.0000
  315  1  36.21000   18.44580  0.0000
  316  1  37.63000   18.44580  0.0000
  317  1  38.34000   17.21608  0.0000
  318  1  39.76000   17.21608  0.0000
  319  1  40.47000   18.44580  0.0000
  320  1  41.89000   18.44580  0.0000
  321  1   0.00000   19.67552  0.0000
  322  1   1.42000   19.67552  0.0000
  323  1   2.13000   20.90524  0.0000
  324  1   3.55000   20.90524  0.0000
  325  1   4.26000   19.67552  0.0000
  326  1   5.68000   19.67552  0.0000
  327  1   6.39000   20.90524  0.0000
  328  1   7.81000   20.90524  0.0000
  329  1   8.52000   19.67552  0.0000
  330  1   9.94000   19.67552  0.0000
  331  1  10.65000   20.90524  0.0000
  332  1  12.07000   20.90524  0.0000
  333  1  12.78000   19.67552  0.0000
  334  1  14.20000   19.67552  0.0000
  335  1  14.91000   20.90524  0.0000
  336  1  16.33000   20.90524  0.0000
  337  1  17.04000   19.67552  0.0000
  338  1  18.46000   19.67552  0.0000
  339  1  19.17000   20.90524  0.0000
  340  1  20.59000   20.90524  0.0000
  341  1  21.30000   19.67552  0.0000
  342  1  22.72000   19.67552  0.0000
  343  1  23.43000   20.90524  0.0000
  344  1  24.85000   20.90524  0.0000
  345  1  25.56000   19.67552  0.0000
  346  1  26.98000   19.67552  0.0000
  347  1  27.69000   20.90524  0.0000
  348  1  29.11000   20.90524  0.0000
  349  1  29.82000   19.67552  0.0000
  350  1  31.24000   19.67552  0.0000
  351  1  31.95000   20.90524  0.0000
  352  1  33.37000   20.90524  0.0000
  353  1  34.08000   19.67552  0.0000
  354  1  35.50000   19.67552  0.0000
  355  1  36.21000   20.90524  0.0000
  356  1  37.63000   20.90524  0.0000
  357  1  38.34000   19.67552  0.0000
  358  1  39.76000   19.67552  0.0000
  359  1  40.47000   20.90524  0.0000
  360  1  41.89000   20.90524  0.0000
  361  1   0.00000   22.13496  0.0000
  362  1   1.42000   22.13496  0.0000
  363  1   2.13000   23.36468  0.0000
  364  1   3.55000   23.36468  0.0000
  365  1   4.26000   22.13496  0.0000
  366  1   5.68000   22.13496  0.0000
  367  1   6.39000   23.36468  0.0000
  368  1   7.81000   23.36468  0.0000
  369  1   8.52000   22.13496  0.0000
  370  1   9.94000   22.13496  0.0000
  371  1  10.65000   23.36468  0.0000
  372  1  12.07000   23.36468  0.0000
  373  1  12.78000   22.13496  0.0000
  374  1  14.20000   22.13496  0.0000
  375  1  14.91000   23.36468  0.0000
  376  1  16.33000   23.36468  0.0000
  377  1  17.04000   22.13496  0.0000
  378  1  18.46000   22.13496  0.0000
  379  1  19.17000   23.36468  0.0000
  380  1  20.59000   23.36468  0.0000
  381  1  21.30000   22.13496  0.0000
  382  1  22.72000   22.13496  0.0000
  383  1  23.43000   23.36468  0.0000
  384  1  24.85000   23.36468  0.0000
  385  1  25.56000   22.13496  0.0000
  386  1  26.98000   22.13496  0.0000
  387  1  27.69000   23.36468  0.0000
  388  1  29.11000   23.36468  0.0000
  389  1  29.82000   22.13496  0.0000
  390  1  31.24000   22.13496  0.0000
  391  1  31.95000   23.36468  0.0000
  392  1  33.37000   23.36468  0.0000
  393  1  34.08000   22.13496  0.0000
  394  1  35.50000   22.13496  0.0000
  395  1  36.21000   23.36468  0.0000
  396  1  37.63000   23.36468  0.0000
  397  1  38.34000   22.13496  0.0000
  398  1  39.76000   22.13496  0.0000
  399  1  40.47000   23.36468  0.0000
  400  1  41.89000   23.36468  0.0000
