LAMMPS (17 Nov 2015)
WARNING: OMP_NUM_THREADS environment is not set. (../comm.cpp:90)
  using 1 OpenMP thread(s) per MPI task
##—————INITIALIZATION——————————-
units real
dimension 3 #3D simmulation
boundary f p f
atom_style atomic
newton on
##—————ATOM DEFINITION——————————
read_data data.graphene
  orthogonal box = (-1.42 -1.22972 -2) to (42.6 24.5944 2)
  1 by 1 by 1 MPI processor grid
  reading atoms ...
  400 atoms
##—————SETTINGS———————————
pair_style airebo 3.0
pair_coeff * * CH.airebo C
Reading potential file CH.airebo with DATE: 2011-10-25
timestep 0.0005
fix 1 all npt temp 300 300 0.05 y 0 0 0.5
thermo 20
compute 1 all stress/atom NULL
compute 2 all pe/atom pair bond
compute 3 all reduce sum c_1[1] c_1[2] c_1[3]
thermo_style custom step temp pe ke etotal lx ly pxx pyy c_3[1] c_3[2] c_3[3]
##—————RUNING-RELAXATION————————————–
run 60000
Neighbor list info ...
  1 neighbor list requests
  update every 1 steps, delay 10 steps, check yes
  max neighbors/atom: 2000, page size: 100000
  master list distance cutoff = 12.2
  ghost atom cutoff = 12.2
  binsize = 6.1 -> bins = 8 5 1
Memory usage per processor = 2.69217 Mbytes
Step Temp PotEng KinEng TotEng Lx Ly Pxx Pyy 3[1] 3[2] 3[3] 
       0            0   -2786.8353            0   -2786.8353        44.02     25.82412   -6614.5017   -5694.6921     30076874     25894397            0 
      20 7.7920004e-07   -2786.9539 9.2673628e-07   -2786.9539        44.02    25.815964   -6605.6434    -5602.981     30027107     25469330            0 
      40 3.2651379e-06   -2787.2941 3.8833695e-06   -2787.2941        44.02    25.791774   -6579.3077    -5329.233     29879370     24202262            0 
      60 7.6724598e-06   -2787.8114 9.125188e-06   -2787.8114        44.02    25.752388   -6536.2229   -4877.8855     29638375     22118677            0 
      80 1.4491588e-05   -2788.4368 1.7235472e-05   -2788.4368        44.02    25.699206   -6477.6322   -4257.2289     29312038     19264455            0 
     100    2.426e-05   -2789.0849 2.8853466e-05   -2789.0849        44.02    25.634182   -6405.3256   -3480.5743     28911505     15710152            0 
     120 3.7658321e-05   -2789.6651 4.4788669e-05    -2789.665        44.02    25.559793   -6321.6583   -2567.5577     28451055     11555469            0 
     140 5.5582638e-05   -2790.0947 6.6106833e-05   -2790.0946        44.02    25.478965   -6229.5396   -1545.1755     27947808    6932176.7            0 
     160 7.9143952e-05   -2790.3127 9.4129321e-05   -2790.3126        44.02    25.394954   -6132.3734   -448.20413     27421175    2004164.3            0 
     180 0.0001097073   -2790.2907 0.00013047963   -2790.2905        44.02    25.311184   -6033.9438    681.38115     26892040   -3036774.9            0 
     200 0.00014891924   -2790.0386 0.00017711608   -2790.0385        44.02    25.231055   -5938.2492    1796.1434     26381766   -7979697.8            0 
     220 0.00019872992   -2789.6043 0.00023635808   -2789.6041        44.02    25.157753   -5849.2967    2846.0042     25911081    -12607164            0 
     240 0.00026141038   -2789.0646 0.00031090666   -2789.0643        44.02    25.094082   -5770.8663    3781.7664     25498954    -16709985            0 
     260 0.00033956696   -2788.5122 0.00040386166   -2788.5118        44.02    25.042339   -5706.2843    4558.8716     25161604    -20102140            0 
     280 0.00043615654   -2788.0389 0.00051873982   -2788.0384        44.02    25.004236   -5658.2179    5140.8136     24911695    -22633696            0 
     300 0.00055450794   -2787.7203 0.00065950025   -2787.7197        44.02    24.980867   -5628.5133    5501.8208     24757754    -24200480            0 
     320 0.00069835542   -2787.6041 0.00083058428   -2787.6033        44.02    24.972711    -5618.092    5628.5631     24703845    -24749889            0 
     340 0.00087189083   -2787.7032 0.0010369774   -2787.7022        44.02    24.979642   -5626.9115    5520.8115     24749494    -24282822            0 
     360 0.0010798406   -2787.9959 0.0012843011   -2787.9947        44.02    25.000966   -5653.9927    5191.0795     24889838    -22852015            0 
     380  0.001327574   -2788.4314 0.0015789411   -2788.4298        44.02    25.035454    -5697.509    4663.3306     25116003    -20557094            0 
     400 0.0016212467   -2788.9393 0.0019282187   -2788.9374        44.02     25.08139   -5754.9284    3970.8818     25415670    -17536729            0 
     420 0.0019679853    -2789.443   0.00234061   -2789.4407        44.02     25.13664   -5823.1954    3153.6826     25773810    -13958387            0 
     440 0.0023761159   -2789.8724 0.0028260173   -2789.8696        44.02     25.19874   -5898.9348    2255.2243     26173539    -10006417            0 
     460 0.0028554384   -2790.1745 0.0033960963   -2790.1711        44.02     25.26501   -5978.6612     1319.404     26597049   -5869583.8            0 
     480 0.0034175526   -2790.3207  0.004064643   -2790.3167        44.02    25.332691   -6058.9717    387.68366     27026529     -1729294            0 
     500 0.0040762382   -2790.3089 0.0048480463    -2790.304        44.02    25.399076   -6136.7075   -503.12377     27445009      2250105            0 
     520 0.0048478968   -2790.1604 0.0057658131   -2790.1546        44.02    25.461649   -6209.0849   -1322.2718     27837110      5928124            0 
     540 0.0057520643   -2789.9143 0.0068411786   -2789.9074        44.02    25.518189   -6273.7677   -2045.6641     28189562    9191665.4            0 
     560 0.0068120085   -2789.6192  0.008101816   -2789.6111        44.02    25.566852    -6328.906    -2655.725     28491541     11955573            0 
     580 0.0080554263   -2789.3254 0.0095806666   -2789.3158        44.02    25.606208   -6373.1385   -3140.7742     28734832     14160938            0 
     600 0.0095152636   -2789.0772  0.011316914   -2789.0659        44.02    25.635265   -6405.5695   -3494.1591     28913828     15772136            0 
     620  0.011230681   -2788.9086  0.013357134   -2788.8953        44.02    25.653454   -6425.7334   -3713.3593     29025424     16773467            0 
     640  0.013248194   -2788.8396  0.015756649   -2788.8239        44.02    25.660611   -6433.5555   -3799.2254     29068865     17166117            0 
     660  0.015623021   -2788.8755  0.018581134   -2788.8569        44.02    25.656951   -6429.3148   -3755.4375     29045560     16965850            0 
     680  0.018420681   -2789.0074  0.021908512   -2788.9854        44.02    25.643035    -6413.614   -3588.2042     28958914     16201551            0 
     700  0.021718876   -2789.2145  0.025831198   -2789.1887        44.02    25.619739   -6387.3546   -3306.1711     28814146     14914546            0 
     720  0.025609723   -2789.4678   0.03045875   -2789.4373        44.02    25.588221    -6351.715   -2920.4739     28618121     13158411            0 
     740  0.030202391   -2789.7334  0.035921008   -2789.6975        44.02    25.549879   -6308.1273   -2444.8453     28379146     10998925            0 
     760  0.035626222   -2789.9779  0.042371805   -2789.9356        44.02    25.506307   -6258.2483   -1895.6797     28106735    8513782.8            0 
     780  0.042034422   -2790.1725  0.049993354   -2790.1225        44.02    25.459238   -6203.9203   -1291.9529     27811323    5791647.4            0 
     800   0.04960844   -2790.2964  0.059001461   -2790.2374        44.02    25.410482   -6147.1204   -654.92631     27503923    2930322.1            0 
     820  0.058563159   -2790.3398  0.069651696   -2790.2702        44.02    25.361853   -6089.8978   -7.5924936     27195748    33905.927            0 
     840   0.06915307   -2790.3048  0.082246734   -2790.2225        44.02    25.315105   -6034.3002    626.13527     26897795   -2790987.8            0 
     860  0.081679609   -2790.2042  0.097145088    -2790.107        44.02    25.271865   -5982.2969    1222.4403     26620443   -5439700.3            0 
     880   0.09649991   -2790.0595   0.11477151   -2789.9448        44.02    25.233571   -5935.6987    1758.7407     26373065   -7814308.5            0 
     900   0.11403723   -2789.8974   0.13562941   -2789.7618        44.02    25.201433   -5896.0802    2214.8441     26163670   -9828300.6            0 
     920    0.1347934   -2789.7452   0.16031562   -2789.5848        44.02    25.176395   -5864.7138    2574.0023     25998625    -11410706            0 
     940   0.15936369    -2789.627   0.18953812   -2789.4374        44.02    25.159114   -5842.5155    2823.7848     25882442    -12509414            0 
     960   0.18845457   -2789.5605   0.22413717   -2789.3363        44.02    25.149957   -5830.0088    2956.6964     25817637    -13093448            0 
     980   0.22290499   -2789.5544   0.26511054   -2789.2893        44.02    25.148993   -5827.3054    2970.4933     25804676    -13154042            0 
    1000   0.26371172   -2789.6082   0.31364374   -2789.2946        44.02    25.156007   -5834.1083    2868.1861     25842006    -12704543            0 
    1020    0.3120598   -2789.7122   0.37114621   -2789.3411        44.02     25.17051    -5849.732    2657.7371     25926149    -11779153            0 
    1040   0.36935887   -2789.8499   0.43929446   -2789.4106        44.02    25.191765   -5873.1429    2351.4782     26051888    -10430607            0 
    1060   0.43728665   -2790.0008   0.52008391   -2789.4807        44.02    25.218818   -5903.0129    1965.2999     26212502     -8726972            0 
    1080   0.51784099   -2790.1436   0.61589066   -2789.5277        44.02    25.250527   -5937.7848    1517.6798     26400061   -6747775.3            0 
    1100   0.61340208   -2790.2592    0.7295456   -2789.5297        44.02    25.285614   -5975.7443    1028.6158     26605752   -4579696.5            0 
    1120   0.72680686    -2790.334   0.86442281   -2789.4695        44.02    25.322711   -6015.0922    518.58092     26820231   -2312260.4            0 
    1140   0.86143799   -2790.3606    1.0245454    -2789.336        44.02    25.360411   -6054.0123    7.5540561     27033957   -33732.286            0 
    1160    1.0213301   -2790.3392     1.214712   -2789.1245        44.02    25.397327   -6090.7341   -485.79411     27237527    2172452.5            0 
    1180    1.2112969   -2790.2769    1.4406477   -2788.8362        44.02    25.432137   -6123.5825   -944.71796     27421958    4230532.7            0 
    1200    1.4370827   -2790.1857    1.7091845   -2788.4765        44.02    25.463634   -6151.0137   -1354.8056     27578911      6074456            0 
    1220    1.7055434   -2790.0813    2.0284764   -2788.0528        44.02    25.490765   -6171.6407   -1704.1945     27700877    7649130.1            0 
    1240    2.0248623   -2789.9802    2.4082562    -2787.572        44.02    25.512656   -6184.2455   -1983.6313     27781292    8911004.8            0 
    1260    2.4048071   -2789.8976     2.860141   -2787.0375        44.02    25.528642   -6187.7817   -2186.4242     27814594    9828159.1            0 
    1280    2.8570358   -2789.8454    3.3979961   -2786.4475        44.02    25.538274   -6181.3672   -2308.3382     27796244     10380087            0 
    1300    3.3954594   -2789.8311    4.0383666   -2785.7928        44.02    25.541328   -6164.2716   -2347.4785     27722683     10557355            0 
    1320    4.0366729   -2789.8567    4.8009895   -2785.0557        44.02    25.537808   -6135.8967   -2304.1909     27591270     10361249            0 
    1340    4.8004637   -2789.9186    5.7093989   -2784.2092        44.02    25.527941   -6095.7521   -2180.9972     27400161    9803495.2            0 
    1360    5.7104115   -2790.0087    6.7916391   -2783.2171        44.02    25.512167   -6043.4255   -1982.5629     27148169    8906034.2            0 
    1380    6.7945921   -2790.1151     8.081102    -2782.034        44.02    25.491124   -5978.5463   -1715.6823     26834568    7700800.8            0 
    1400    8.0863993    -2790.224    9.6175041   -2780.6065        44.02    25.465628   -5900.7405   -1389.2539     26458848    6229397.8            0 
    1420    9.6254983   -2790.3216    11.448021   -2778.8736        44.02    25.436648   -5809.5764   -1014.2105     26020425    4542532.4            0 
    1440    11.458924   -2790.3957    13.628593   -2776.7672        44.02    25.405271   -5704.4981    -603.3671     25518274    2699078.5            0 
    1460    13.642329   -2790.4381    16.225412   -2774.2127        44.02    25.372664    -5584.747   -171.15613     24950519    764660.54            0 
    1480    16.241391   -2790.4451    19.316588   -2771.1285        44.02     25.34003   -5449.2706    266.77029     24313950   -1190294.7            0 
    1500    19.333357   -2790.4183    22.993996   -2767.4243        44.02    25.308565   -5296.6195    694.07393     23603496   -3093023.7            0 
    1520    23.008704   -2790.3645    27.365246   -2762.9993        44.02    25.279415   -5124.8408    1094.3798     22811688   -4871302.3            0 
    1540    27.372862   -2790.2946    32.555728   -2757.7388        44.02    25.253624   -4931.3611    1452.0089     21928076     -6456587            0 
    1560     32.54788   -2790.2216    38.710601    -2751.511        44.02    25.232106   -4712.8775    1752.7394     20938698   -7787191.7            0 
    1580    38.673891   -2790.1592     45.99653   -2744.1627        44.02    25.215607    -4465.261    1984.5384     19825598   -8811278.9            0 
    1600    45.910104   -2790.1195    54.602871   -2735.5166        44.02    25.204679    -4183.484    2138.2042     18566469   -9489435.3            0 
    1620    54.434968    -2790.111     64.74186   -2725.3691        44.02    25.199668   -3861.5893     2207.864     17134480   -9796640.1            0 
    1640    64.444942   -2790.1375    76.647154   -2713.4904        44.02    25.200696    -3492.722    2191.2928     15498389   -9723507.5            0 
    1660    76.151153   -2790.1979    90.569856    -2699.628        44.02    25.207666   -3069.2495    2090.0176     13623066   -9276680.3            0 
    1680    89.772912   -2790.2858     106.7708    -2683.515        44.02    25.220262   -2583.0084    1909.2059     11470581   -8478369.9            0 
    1700    105.52681   -2790.3914     125.5076   -2664.8838        44.02    25.237965   -2025.7183    1657.3452    9002090.5     -7365077            0 
    1720    123.60981   -2790.5024    147.01449   -2643.4879        44.02    25.260069    -1389.621    1345.7357    6180745.5   -5985552.8            0 
    1740    144.17444    -2790.606    171.47289   -2619.1331        44.02    25.285712    -668.4013    987.84885    2975927.8   -4398206.8            0 
    1760    167.29437   -2790.6914    198.97042    -2591.721        44.02    25.313908    141.54349    598.59397   -630898.84   -2668095.9            0 
    1780    192.91865   -2790.7506    229.44649   -2561.3041        44.02    25.343583    1039.4382    193.55548   -4638491.7   -863740.04            0 
    1800     220.8143     -2790.78    262.62399    -2528.156        44.02    25.373619    2018.0496   -211.74075   -9016216.2    946013.46            0 
    1820    250.49874   -2790.7807    297.92898   -2492.8518        44.02    25.402896    3061.2505    -602.4834    -13692796    2694874.2            0 
    1840    281.16777   -2790.7581    334.40498   -2456.3531        44.02    25.430336    4141.4245   -965.11568    -18544362    4321570.5            0 
    1860    311.63069   -2790.7208    370.63584    -2420.085        44.02    25.454941    5217.1207   -1287.7417    -23383689    5771795.9            0 
    1880    340.27427   -2790.6799    404.70289    -2385.977        44.02    25.475827    6231.7193   -1560.3949    -27954146    6999594.9            0 
    1900    365.09133   -2790.6466    434.21889   -2356.4277        44.02    25.492255    7114.3831    -1775.177    -31934164    7968195.9            0 
    1920    383.82886   -2790.6311    456.50425   -2334.1268        44.02    25.503648    7785.2633   -1926.2844    -34961146    8650332.9            0 
    1940    394.32769   -2790.6411    468.99096   -2321.6502        44.02    25.509613    8167.5527   -2009.9373    -36686464    9028102.3            0 
    1960    395.10338   -2790.6809    469.91352   -2320.7674        44.02    25.509943    8208.2273   -2024.2327    -36869641      9092431            0 
    1980    386.06751   -2790.7506    459.16677   -2331.5839        44.02    25.504629    7903.9145   -1968.9709    -35495335    8842364.5            0 
    2000    368.96364   -2790.8464     438.8244    -2352.022        44.02    25.493853    7316.6533   -1845.5664    -32844149    8284671.3            0 
    2020    346.95853   -2790.9608    412.65277    -2378.308        44.02     25.47799      6559.39   -1657.1646    -29426504    7434314.8            0 
    2040    323.47236   -2791.0838    384.71965   -2406.3641        44.02    25.457592    5754.0976   -1408.9269    -25793163    6315619.1            0 
    2060    301.14479   -2791.2042    358.16451   -2433.0397        44.02    25.433376    4994.6743   -1108.2504    -22367697    4963089.7            0 
    2080    281.54601   -2791.3111    334.85484   -2456.4563        44.02    25.406204    4336.5594   -764.75686    -19399707    3421160.7            0 
    2100    265.42289   -2791.3952    315.67891   -2475.7163        44.02    25.377048    3805.5775   -390.07195    -17004809    1742996.3            0 
    2120     253.0556   -2791.4505    300.96996   -2490.4806        44.02    25.346962    3410.7691    2.5296882    -15222583   -11287.674            0 
    2140    244.52201    -2791.475    290.82059   -2500.6544        44.02    25.317037     3153.916    398.58004    -14059604   -1776796.9            0 
    2160    239.84478   -2791.4709    285.25776   -2506.2132        44.02    25.288362    3034.8523    782.96694    -13513517   -3486372.6            0 
    2180    239.04649    -2791.445    284.30832   -2507.1367        44.02    25.261982    3053.4608    1140.5662    -13582193   -5073383.6            0 
    2200    242.13387   -2791.4069    287.98027   -2503.4266        44.02    25.238856    3209.1002    1456.9276    -14261430     -6474667            0 
    2220    249.02709   -2791.3683    296.17868   -2495.1896        44.02    25.219818     3498.027    1718.9716    -15533711   -7633443.5            0 
    2240     259.4611   -2791.3407     308.5883   -2482.7524        44.02    25.205551    3909.7908    1915.6526    -17352411   -8502033.2            0 
    2260    272.90353    -2791.334    324.57595   -2466.7581        44.02    25.196558    4424.2409     2038.537    -19628635     -9044190            0 
    2280    288.52782   -2791.3548    343.15861   -2448.1962        44.02    25.193144    5010.5805    2082.2726    -22226983   -9236975.7            0 
    2300    305.24449   -2791.4054    363.04046    -2428.365        44.02    25.195407    5628.5747    2044.8926    -24970654   -9071972.6            0 
    2320    321.76459   -2791.4834    382.68853   -2408.7949        44.02    25.203234    6230.9776    1927.9352    -27651746     -8555759            0 
    2340     336.6796   -2791.5821     400.4276   -2391.1545        44.02    25.216303    6766.5642    1736.3618    -30044136   -7709592.7            0 
    2360    348.56824   -2791.6918    414.56727   -2377.1245        44.02    25.234096    7184.1328    1478.2865    -31920684   -6568347.6            0 
    2380    356.15392   -2791.8007    423.58925   -2368.2115        44.02    25.255916    7438.3046    1164.5415    -33078604   -5178783.7            0 
    2400    358.52183   -2791.8975    426.40551    -2365.492        44.02    25.280914    7497.4093     808.1229    -33374447   -3597325.4            0 
    2420    355.35924   -2791.9726     422.6441   -2369.3285        44.02    25.308121    7352.1083    423.55374    -32762866   -1887458.9            0 
    2440    347.11899   -2792.0195    412.84361   -2379.1759        44.02    25.336482    7021.1075    26.191854    -31322904   -116844.24            0 
    2460    334.97792   -2792.0362    398.40371   -2393.6324        44.02    25.364903    6549.3571    -368.4876    -29251084    1645762.7            0 
    2480    320.54913    -2792.025    381.24293   -2410.7821        44.02    25.392291     5997.342    -745.5951    -26814567    3333615.4            0 
    2500    305.47865   -2791.9924    363.31896   -2428.6734        44.02    25.417596    5426.3079   -1091.4433    -24285610    4884791.9            0 
    2520     291.1345   -2791.9477    346.25884   -2445.6888        44.02    25.439855    4886.9753   -1394.0128    -21890964    6244414.3            0 
    2540    278.49235   -2791.9019    331.22298    -2460.679        44.02    25.458223     4415.472   -1643.2439    -19793170    7366147.4            0 
    2560    268.17632   -2791.8662    318.95368   -2472.9125        44.02    25.472005    4034.9088   -1831.1848    -18097017    8213070.3            0 
    2580    260.56109   -2791.8498    309.89657   -2481.9533        44.02    25.480676    3759.1564   -1952.0439    -16865976    8758117.5            0 
    2600    255.86732   -2791.8596    304.31406   -2487.5455        44.02    25.483901    3596.3548   -2002.1953    -16137587    8984265.9            0 
    2620    254.22112   -2791.8983    302.35616   -2489.5422        44.02    25.481543    3551.1015   -1980.1677    -15933051    8884601.1            0 
    2640    255.67116    -2791.965    304.08076   -2487.8843        44.02    25.473665    3625.0893   -1886.6384    -16259990    8462337.5            0 
    2660    260.16788   -2792.0546     309.4289   -2482.6257        44.02     25.46053    3816.3558   -1724.4387    -17109072      7730819            0 
    2680    267.51815   -2792.1587     318.1709   -2473.9878        44.02    25.442597    4117.6273   -1498.5635    -18446697    6713467.9            0 
    2700     277.3378   -2792.2672    329.84983   -2462.4174        44.02    25.420499    4514.5569   -1216.1628    -20207349      5443600            0 
    2720    289.02576    -2792.369    343.75082   -2448.6182        44.02    25.395028    4984.7282   -886.48903    -22289499      3963991            0 
    2740    301.77297   -2792.4541    358.91163   -2433.5425        44.02    25.367108    5497.9028   -520.76483    -24557160    2326074.6            0 
    2760    314.60324   -2792.5149    374.17123   -2418.3437        44.02    25.337759     6017.445   -131.94648    -26846672    588681.23            0 
    2780    326.43839   -2792.5473    388.24728      -2404.3        44.02    25.308062    6502.6624    265.63714    -28977453   -1183737.9            0 
    2800    336.18608   -2792.5514    399.84063   -2392.7107        44.02    25.279115    6912.0272    656.77611    -30766452   -2923400.6            0 
    2820    342.85581   -2792.5316    407.77323   -2384.7584        44.02     25.25199    7207.4922    1025.9958    -32047186   -4561950.9            0 
    2840    345.70338   -2792.4961    411.15997   -2381.3361        44.02    25.227692    7359.9093    1358.2675    -32693401   -6033542.5            0 
    2860    344.38386   -2792.4551    409.59061   -2382.8645        44.02    25.207118    7354.8101    1639.7669    -32644106   -7278048.4            0 
    2880    339.06328   -2792.4199    403.26261   -2389.1573        44.02    25.191022    7196.6886    1858.6072    -31921892   -8244096.7            0 
    2900    330.42358   -2792.4007    392.98704   -2399.4136        44.02    25.179988     6909.351    2005.4865    -30633944   -8891702.9            0 
    2920    319.52725   -2792.4051    380.02756   -2412.3775        44.02    25.174408     6531.049    2074.1768    -28950252   -9194216.7            0 
    2940    307.58476    -2792.437    365.82384   -2426.6131        44.02     25.17447    6105.9622     2061.829    -27066032   -9139504.5            0 
    2960    295.72725   -2792.4958    351.72119   -2440.7746        44.02    25.180149    5675.7996    1969.0899    -25164917   -8730386.8            0 
    2980    284.86895   -2792.5766    338.80695   -2453.7697        44.02    25.191211    5274.6584    1800.0412    -23396644   -7984378.5            0 
    3000    275.67446   -2792.6711    327.87155   -2464.7996        44.02    25.207222    4927.7258    1561.9665    -21871658   -6932761.4            0 
    3020    268.59326   -2792.7685    319.44956    -2473.319        44.02    25.227562    4652.4642    1264.9555    -20666575   -5619012.3            0 
    3040    263.91496   -2792.8576    313.88546   -2478.9721        44.02    25.251446    4460.5783    921.36885    -19832964   -4096651.4            0 
    3060    261.81427   -2792.9281    311.38702   -2481.5411        44.02    25.277959     4359.617    545.19246    -19404414   -2426613.1            0 
    3080    262.37142   -2792.9728    312.04966   -2480.9232        44.02    25.306084     4353.698    151.34621    -19399630   -674375.41            0 
    3100    265.56613   -2792.9881    315.84927   -2477.1388        44.02    25.334745    4443.2768   -245.01535    -19821207    1093006.6            0 
    3120    271.25184   -2792.9747    322.61154   -2470.3632        44.02     25.36285    4624.2111   -629.15122    -20651228    2809727.8            0 
    3140    279.12424   -2792.9376    331.97452   -2460.9631        44.02    25.389328    4886.6231   -987.29211    -21845914    4413748.8            0 
    3160    288.70098   -2792.8852    343.36455   -2449.5207        44.02    25.413174    5214.1753   -1307.0798    -23332147    5848864.6            0 
    3180    299.32502   -2792.8281    356.00018   -2436.8279        44.02    25.433482    5584.1867   -1577.8812    -25007824      7066276            0 
    3200    310.19427   -2792.7775    368.92744   -2423.8501        44.02     25.44948    5968.6802   -1790.9865    -26746524      8025676            0 
    3220    320.41391   -2792.7439    381.08211   -2411.6618        44.02    25.460551    6336.2229    -1939.713    -28405889    8695922.5            0 
    3240    329.06866   -2792.7352    391.37558   -2401.3596        44.02    25.466258      6654.46   -2019.4449    -29839262    9055397.2            0 
    3260    335.31507   -2792.7562     398.8047   -2393.9515        44.02    25.466354    6893.3615   -2027.6344    -30910637    9092154.3            0 
    3280    338.49235   -2792.8073    402.58358   -2390.2237        44.02     25.46079     7029.144   -1963.7908    -31512615    8803948.3            0 
    3300    338.23853    -2792.885     402.2817   -2390.6033        44.02    25.449718    7048.4159   -1829.4712    -31585273    8198208.9            0 
    3320    334.58095   -2792.9819    397.93158   -2395.0503        44.02    25.433488    6951.4504   -1628.2857    -31130887    7292006.1            0 
    3340    327.95875   -2793.0878    390.05551   -2403.0323        44.02    25.412639    6753.0648   -1365.9152    -30217659    6112010.4            0 
    3360    319.14904   -2793.1911    379.57774   -2413.6133        44.02     25.38788    6480.0682   -1050.1287    -28967844    4694396.5            0 
    3380     309.1122   -2793.2802     367.6405   -2425.6397        44.02    25.360077    6165.7998   -690.76705    -27532785    3084561.4            0 
    3400    298.81625   -2793.3453    355.39507   -2437.9502        44.02    25.330215    5843.8832   -299.64643    -26064572    1336475.2            0 
    3420    289.10496     -2793.38    343.84502    -2449.535        44.02    25.299374    5543.5195    109.66165    -24694802   -488502.01            0 
    3440    280.63864   -2793.3822    333.77566   -2459.6065        44.02     25.26868    5287.3652    522.20137    -23525132   -2323425.7            0 
    3460    273.89493   -2793.3544    325.75507   -2467.5993        44.02    25.239268    5091.5674    922.15715    -22627599   -4098176.7            0 
    3480    269.19923   -2793.3037    320.17028   -2473.1334        44.02    25.212238    4966.8603    1293.5099    -22049745   -5742359.8            0 
    3500    266.75755    -2793.241    317.26628   -2475.9747        44.02    25.188606    4919.7522    1620.7805    -21820143   -7188491.2            0 
    3520    266.67576   -2793.1787      317.169   -2476.0097        44.02    25.169272    4953.2249    1889.8152    -21951740   -8375282.5            0 
    3540    268.95999   -2793.1298    319.88574   -2473.2441        44.02    25.154977    5066.7477    2088.5496    -22442098   -9250777.9            0 
    3560    273.50083    -2793.105    325.28636   -2467.8187        44.02    25.146282    5255.7067    2207.6871    -23271005   -9775091.8            0 
    3580    280.05078   -2793.1115     333.0765    -2460.035        44.02    25.143539    5510.5983    2241.2406    -24396942     -9922576            0 
    3600    288.20797   -2793.1514     342.7782   -2450.3732        44.02    25.146884    5816.4623    2186.8964    -25754512   -9683267.1            0 
    3620    297.41699   -2793.2217    353.73088   -2439.4908        44.02    25.156225    6152.9582     2046.171    -27254589   -9063519.7            0 
    3640    306.99156   -2793.3144    365.11833   -2428.1961        44.02    25.171245    6495.2501    1824.3494    -28787953   -8085784.2            0 
    3660     316.1577   -2793.4179    376.02001   -2417.3979        44.02    25.191414    6815.6405    1530.2086    -30232177   -6787541.5            0 
    3680    324.11456   -2793.5183    385.48345   -2408.0348        44.02       25.216    7085.8334    1175.5494    -31461347   -5219467.2            0 
    3700    330.11147   -2793.6021    392.61583   -2400.9863        44.02    25.244098    7279.7524    774.57522    -32358370   -3442960.8            0 
    3720    333.53886    -2793.658    396.69218   -2396.9658        44.02    25.274659    7376.8128    343.16382    -32829498   -1527192.2            0 
    3740    334.02366   -2793.6787    397.26877   -2396.4099        44.02    25.306532    7365.2966    -101.9005    -32819582    454076.85            0 
    3760     331.5078    -2793.662    394.27655   -2399.3854        44.02    25.338506    7245.0587     -543.681    -32324594    2425700.1            0 
    3780    326.27928   -2793.6113    388.05805   -2405.5532        44.02    25.369356    7028.4782   -965.78335    -31396477    4314199.7            0 
    3800    318.93149    -2793.535      379.319    -2414.216        44.02    25.397891    6738.8086   -1352.9522    -30136372    6050494.6            0 
    3820    310.25402   -2793.4453    368.99851   -2424.4468        44.02    25.423001    6406.0978   -1691.5431    -28676792    7572172.6            0 
    3840    301.09235   -2793.3567    358.10215   -2435.2545        44.02    25.443693    6062.0495   -1969.8625    -27158753    8825241.5            0 
    3860    292.22661   -2793.2834    347.55774   -2445.7257        44.02    25.459132    5735.6444    -2178.379    -25712009    9765343.2            0 
    3880    284.30112    -2793.238    338.13161   -2455.1064        44.02    25.468667    5450.6441   -2309.8319    -24443548     10358504            0 
    3900    277.80553   -2793.2291    330.40612    -2462.823        44.02     25.47185    5224.9746   -2359.2756    -23434457     10581558            0 
    3920    273.08812   -2793.2606     324.7955   -2468.4651        44.02    25.468458    5071.2653   -2324.0998    -22742029     10422403            0 
    3940    270.37882   -2793.3307    321.57322   -2471.7574        44.02    25.458498    4997.7219   -2204.0612    -22403460    9880226.7            0 
    3960    269.80606   -2793.4318    320.89201   -2472.5398        44.02    25.442214    5008.7554   -2001.3449    -22438559    8965765.6            0 
    3980    271.40001    -2793.552    322.78776   -2470.7643        44.02    25.420079    5105.1007   -1720.6563    -22850276    7701612.7            0 
    4000    275.08262    -2793.676    327.16765   -2466.5083        44.02    25.392794    5283.4342   -1369.3232    -23623108    6122478.7            0 
    4020    280.65076   -2793.7871    333.79007    -2459.997        44.02    25.361264     5535.725   -957.37326    -24720408    4275268.6            0 
    4040    287.76267   -2793.8701    342.24858   -2451.6215        44.02    25.326576    5848.6899   -497.53601    -26082266    2218775.8            0 
    4060    295.93748   -2793.9131    351.97123   -2441.9419        44.02    25.289966      6203.72   -5.1158985    -27625533    22794.048            0 
    4080    304.57301   -2793.9096    362.24184   -2431.6678        44.02     25.25277    6577.4875    502.31155    -29246862     -2233519            0 
    4100    312.98209     -2793.86    372.24312   -2421.6169        44.02    25.216379    6943.2593    1005.4136    -30828780   -4464123.3            0 
    4120    320.44483   -2793.7719    381.11888    -2412.653        44.02    25.182184    7272.8469    1483.8239    -32248392   -6579378.4            0 
    4140    326.27494    -2793.659    388.05288   -2405.6061        44.02    25.151516    7539.1249    1917.0517    -33388378   -8489992.2            0 
    4160    329.89748   -2793.5395    392.36133   -2401.1782        44.02    25.125594     7719.026    2285.5309    -34149871    -10111436            0 
    4180    330.93108   -2793.4334    393.59063   -2399.8427        44.02    25.105479    7796.7336    2571.7112    -34466043    -11368422            0 
    4200    329.25873    -2793.359    391.60163   -2401.7574        44.02    25.092025    7766.4671    2761.1102    -34313849    -12199132            0 
    4220    325.06383   -2793.3304    386.61246    -2406.718        44.02     25.08585    7633.9534    2843.2247    -33720077    -12558839            0 
    4240    318.80986   -2793.3548    379.17434   -2414.1804        44.02    25.087312    7415.7684    2812.2215    -32758238    -12422618            0 
    4260    311.16084   -2793.4308    370.07703   -2423.3538        44.02    25.096489    7136.4198    2667.3473    -31535782    -11786965            0 
    4280    302.86648   -2793.5487    360.21219   -2433.3365        44.02    25.113172    6824.0614    2413.0272    -30175518    -10670215            0 
    4300    294.65158   -2793.6916    350.44185   -2443.2498        44.02    25.136867    6506.3225    2058.6513    -28797647   -9111780.3            0 
    4320    287.14105   -2793.8377    341.50926   -2452.3284        44.02    25.166808    6207.4376    1618.0672    -27507478   -7170241.4            0 
    4340    280.82871   -2793.9636    334.00172   -2459.9618        44.02    25.201971     5946.996    1108.8191    -26390185   -4920439.5            0 
    4360    276.07839    -2794.048    328.35196   -2465.6961        44.02    25.241112    5739.8997    551.19133    -25510741   -2449730.2            0 
    4380    273.13911   -2794.0754    324.85614   -2469.2192        44.02    25.282804    5596.8611   -32.868074    -24916099    146336.45            0 
    4400    272.15913   -2794.0379    323.69062   -2470.3473        44.02    25.325496    5524.8814   -620.85343    -24637191      2768594            0 
    4420    273.19063   -2793.9376    324.91742   -2469.0202        44.02    25.367564    5527.4054   -1190.7262    -24689390    5318655.2            0 
    4440    276.18322   -2793.7857    328.47664    -2465.309        44.02    25.407385     5604.088   -1721.7956    -25071203    7702865.8            0 
    4460    280.97095   -2793.6013    334.17089   -2459.4304        44.02    25.443393     5750.332   -2195.3841    -25761918    9835492.9            0 
    4480    287.26059    -2793.409    341.65143   -2451.7576        44.02    25.474142    5956.8786   -2595.2629    -26719513     11641030            0 
    4500    294.63019   -2793.2352    350.41642   -2442.8188        44.02    25.498356    6209.7545   -2907.8725    -27880261     13055634            0 
    4520    302.54337   -2793.1046     359.8279   -2433.2767        44.02    25.514975    6490.7634   -3122.3786    -29160914     14027850            0 
    4540    310.38019   -2793.0368    369.14857   -2423.8882        44.02    25.523189    6778.5469   -3230.6344    -30463636     14518881            0 
    4560    317.48282   -2793.0435    377.59604   -2415.4475        44.02    25.522465    7050.1468   -3227.1253    -31683341     14502699            0 
    4580    323.21358   -2793.1265    384.41188   -2408.7146        44.02    25.512568    7282.9953   -3108.9645    -32717069     13966267            0 
    4600    327.02291   -2793.2768    388.94248   -2404.3343        44.02     25.49358     7457.264   -2875.9929    -33474996     12910085            0 
    4620    328.52196   -2793.4753    390.72536   -2402.7499        44.02    25.465908     7558.406   -2531.0051    -33892186     11349134            0 
    4640     327.5478   -2793.6947    389.56675   -2404.1279        44.02    25.430292    7579.4856   -2080.0971    -33939176    9314201.7            0 
    4660    324.20265   -2793.9022    385.58822    -2408.314        44.02    25.387802    7522.6405   -1533.0899    -33628355    6853362.3            0 
    4680    318.84804   -2794.0645    379.21975   -2414.8447        44.02    25.339815    7398.9844   -903.94754    -33013061    4033279.9            0 
    4700    312.04711   -2794.1521    371.13111    -2423.021        44.02    25.287991    7226.6769   -211.07037    -32178309    939851.18            0 
    4720    304.46979    -2794.145    362.11908   -2432.0259        44.02    25.234211    7027.6447    522.66962    -31225528   -2322329.6            0 
    4740    296.79214   -2794.0361    352.98772   -2441.0484        44.02    25.180513    6824.0603    1270.2897    -30256432   -5632173.6            0 
    4760    289.61958   -2793.8345    344.45708   -2449.3774        44.02    25.129005    6635.6373    2001.5157    -29360824   -8856118.9            0 
    4780    283.44695   -2793.5646    337.11571   -2456.4489        44.02     25.08177    6478.2241    2684.1095    -28610435    -11854077            0 
    4800     278.6501   -2793.2637     331.4106   -2461.8531        44.02    25.040772    6363.5259    3285.5933    -28057945    -14486750            0 
    4820    275.49432   -2792.9764    327.65729   -2465.3191        44.02    25.007772    6299.4435    3775.2344    -27738791    -16623728            0 
    4840    274.14579    -2792.748    326.05343   -2466.6946        44.02    24.984251    6290.5255    4126.0955    -27673469    -18151611            0 
    4860    274.67685   -2792.6163    326.68505   -2465.9312        44.02    24.971351    6338.2033    4316.9448    -27868818    -18981394            0 
    4880    277.06219    -2792.605    329.52203    -2463.083        44.02    24.969828    6440.6986    4333.8478    -28317758    -19054553            0 
    4900    281.16857   -2792.7193    334.40593   -2458.3134        44.02    24.980021    6592.6964    4171.3021    -28997877    -18347377            0 
    4920    286.74465   -2792.9435     341.0378   -2451.9057        44.02     25.00183    6785.0254    3832.8165    -29869888    -16873273            0 
    4940    293.41865   -2793.2426    348.97548   -2444.2671        44.02      25.0347    7004.6309    3330.8767    -30877203    -14682850            0 
    4960    300.70969   -2793.5678    357.64702   -2435.9208        44.02    25.077622    7235.0411    2686.2745    -31947557    -11861676            0 
    4980    308.05419   -2793.8633    366.38216   -2427.4811        44.02    25.129151    7457.3717    1926.8287    -32996957   -8525698.4            0 
    5000    314.84613   -2794.0761    374.46011   -2419.6159        44.02     25.18744    7651.7907    1085.5809    -33935744   -4814536.8            0 
    5020    320.48848   -2794.1643    381.17079   -2412.9936        44.02    25.250305    7799.3371    198.63616    -34676445   -883132.58            0 
    5040    324.45353   -2794.1052     385.8866   -2408.2186        44.02    25.315315    7883.9854   -697.12277    -35143045    3107456.7            0 
    5060    326.34781   -2793.8986    388.13955    -2405.759        44.02    25.379902    7894.8032   -1566.1811    -35281048    6999112.9            0 
    5080    325.97238   -2793.5672    387.69304   -2405.8742        44.02    25.441484    7827.8828   -2376.1254    -35066868     10644432            0 
    5100    323.36368   -2793.1531     384.5904   -2408.5627        44.02    25.497586    7687.5532   -3098.8255    -34514169     13912548            0 
    5120    318.79818   -2792.7112    379.16046   -2413.5508        44.02     25.54595     7486.313    -3711.002    -33674430     16692587            0 
    5140    312.75186    -2792.301     371.9693   -2420.3317        44.02     25.58462    7243.2175   -4194.2551    -32630274     18894881            0 
    5160    305.82259    -2791.978    363.72802     -2428.25        44.02     25.61201    6981.0383    -4534.716    -31482840     20450506            0 
    5180    298.63962   -2791.7866    355.18501   -2436.6016        44.02    25.626943    6723.0597   -4722.5258    -30337095     21309901            0 
    5200    291.78731   -2791.7539    347.03525   -2444.7187        44.02     25.62868    6490.4544   -4751.3369    -29289473     21441362            0 
    5220    285.75889   -2791.8861    339.86539   -2452.0207        44.02     25.61694    6300.7534   -4618.0096    -28420385     20830149            0 
    5240       280.94    -2792.167    334.13408   -2458.0329        44.02    25.591912    6167.3592   -4322.6161    -27791515     19478690            0 
    5260     277.6109   -2792.5591    330.17464   -2462.3844        44.02    25.554274    6099.6903    -3868.804    -27446160     17408072            0 
    5280    275.95484   -2793.0075    328.20502   -2464.8025        44.02    25.505194    6103.4956   -3264.4982    -27410537     14660729            0 
    5300    276.06321   -2793.4464     328.3339   -2465.1125        44.02     25.44633    6181.0087   -2522.8304    -27694582     11303785            0 
    5320    277.93339   -2793.8078     330.5582   -2463.2496        44.02    25.379801    6330.8055   -1663.0955    -28291599    7432184.4            0 
    5340     281.4607   -2794.0322    334.75338   -2459.2789        44.02    25.308124    6547.4196   -711.46227    -29176987    3170476.2            0 
    5360    286.42934    -2794.079     340.6628   -2453.4162        44.02    25.234116    6820.9216    298.87218    -30306897   -1327935.3            0 
    5380    292.50958   -2793.9345    347.89429   -2446.0402        44.02    25.160765    7136.7441    1328.3518    -31617993   -5884985.5            0 
    5400    299.26662    -2793.616    355.93072   -2437.6853        44.02    25.091071    7475.9974    2332.6603    -33029247    -10305754            0 
    5420    306.18338   -2793.1707    364.15713   -2429.0136        44.02    25.027887    7816.3809    3265.2356    -34446113    -14389577            0 
    5440    312.69628   -2792.6681     371.9032   -2420.7649        44.02    24.973772    8133.6778     4080.386    -35766911    -17942991            0 
    5460    318.24154   -2792.1884    378.49841     -2413.69        44.02    24.930877    8403.7404    4736.6448    -36891006    -20793035            0 
    5480    322.30968   -2791.8087    383.33683   -2408.4719        44.02    24.900855     8604.847    5199.9821    -37728342    -22799519            0 
    5500    324.50468   -2791.5897    385.94743   -2405.6422        44.02    24.884819     8720.183     5446.104    -38209415    -23863272            0 
    5520    324.60045   -2791.5651    386.06134   -2405.5038        44.02     24.88331    8740.2575    5462.5819    -38295055    -23934023            0 
    5540    322.58249   -2791.7365     383.6613   -2408.0752        44.02    24.896298    8664.5863    5249.6317    -37983319    -23012996            0 
    5560    318.65984   -2792.0729    378.99592    -2413.077        44.02    24.923179    8502.1268    4820.0122    -37311382    -21152470            0 
    5580    313.23727   -2792.5167    372.54662   -2419.9701        44.02    24.962799    8270.1005    4198.1151    -36350835    -18452579            0 
    5600     306.8514   -2792.9939    364.95163   -2428.0422        44.02    25.013483    7991.2971    3417.8071    -35196687    -15053276            0 
    5620    300.08921   -2793.4269    356.90907   -2436.5178        44.02    25.073092    7690.7368    2519.9629    -33953627    -11125284            0 
    5640    293.51366   -2793.7479    349.08848   -2444.6594        44.02    25.139103    7392.5988    1549.4313    -32723312   -6858523.5            0 
    5660    287.61358   -2793.9101    342.07126   -2451.8388        44.02     25.20873    7118.1062    551.77894    -31595539   -2449187.9            0 
    5680    282.78106   -2793.8942    336.32373   -2457.5705        44.02    25.279062    6884.5263   -429.68303    -30643993    1912599.8            0 
    5700    279.30851   -2793.7104    332.19368   -2461.5168        44.02    25.347214    6704.9882   -1356.2964    -29925305      6053358            0 
    5720    277.39418   -2793.3943    329.91689   -2463.4775        44.02    25.410481    6588.6864   -2195.6134    -29479631    9823803.4            0 
    5740    277.14671   -2792.9993    329.62256   -2463.3767        44.02    25.466461    6541.1008   -2922.0782    -29331194     13103010            0 
    5760    278.58402   -2792.5868    331.33201   -2461.2548        44.02    25.513152     6564.045   -3516.9451    -29488043     15799386            0 
    5780    281.62664   -2792.2169    334.95073   -2457.2661        44.02    25.549012    6655.5121    -3967.667    -29940969     17849242            0 
    5800    286.08954   -2791.9394    340.25865   -2451.6808        44.02    25.572984    6809.4523   -4267.0303    -30662238     19213989            0 
    5820    291.67883   -2791.7887    346.90623   -2444.8824        44.02    25.584502    7015.6877   -4412.2891    -31605123     19877022            0 
    5840    297.99871   -2791.7797    354.42274    -2437.357        44.02    25.583476    7260.1564   -4404.4823    -32705122     19841057            0 
    5860    304.57131   -2791.9079    362.23982   -2429.6681        44.02    25.570269    7525.5746   -4248.0251    -33883262     19126380            0 
    5880    310.86873   -2792.1504    369.72961   -2422.4208        44.02    25.545676    7792.5094   -3950.5976    -35051368     17770132            0 
    5900    316.35502   -2792.4701    376.25469   -2416.2154        44.02    25.510887    8040.8036   -3523.2743    -36118962     15826415            0 
    5920     320.5358   -2792.8208    381.22708   -2411.5937        44.02    25.467452    8251.2972   -2980.7807    -37001385     13366761            0 
    5940    323.01247    -2793.154    384.17269   -2408.9813        44.02    25.417223    8407.7679   -2341.7311    -37628689     10480356            0 
    5960     323.5354   -2793.4256    384.79463    -2408.631        44.02    25.362291      8498.91   -1628.6795    -37954388    7273366.1            0 
    5980    322.04607   -2793.6024    383.02331   -2410.5791        44.02    25.304891    8519.9977   -867.83196    -37962451      3866809            0 
    6000    318.69496   -2793.6667    379.03769    -2414.629        44.02     25.24731    8473.7311   -88.325011    -37670388    392676.96            0 
    6020     313.8244   -2793.6183    373.24492   -2420.3733        44.02    25.191774     8369.848     678.9512    -37126726   -3011644.7            0 
    6040    307.91652   -2793.4742    366.21842   -2427.2558        44.02    25.140352    8223.4437     1402.891    -36402853   -6210169.9            0 
    6060       301.52   -2793.2648    358.61077   -2434.6541        44.02    25.094861    8052.4635    2053.9436    -35581472   -9075740.1            0 
    6080    295.17792   -2793.0284    351.06786   -2441.9606        44.02    25.056797    7875.1544    2605.8915    -34745215    -11497169            0 
    6100    289.37454   -2792.8044    344.16564   -2448.6388        44.02    25.027294    7708.1457    3037.4383    -33968330    -13385373            0 
    6120    284.50748   -2792.6272    338.37704   -2454.2501        44.02    25.007091    7565.4082    3333.4415    -33312401    -14677943            0 
    6140    280.88024   -2792.5207      334.063   -2458.4577        44.02    24.996534     7457.932    3485.6845    -32825293    -15341828            0 
    6160    278.70507   -2792.4961    331.47598   -2461.0201        44.02    24.995585    7393.7722    3493.1409    -32541665    -15374062            0 
    6180    278.10697   -2792.5504    330.76463   -2461.7858        44.02    25.003844    7378.1308    3361.7408    -32483554    -14800630            0 
    6200    279.12345   -2792.6687    331.97358   -2460.6951        44.02    25.020583    7413.2816    3103.6912    -32660162    -13673669            0 
    6220    281.69907   -2792.8273    335.03688   -2457.7904        44.02    25.044787    7498.3092    2736.4285    -33066718    -12067310            0 
    6240    285.67793   -2792.9982    339.76911   -2453.2291        44.02    25.075201    7628.7832    2281.3084    -33682948    -10072499            0 
    6260    290.79978   -2793.1536    345.86074   -2447.2929        44.02    25.110388    7796.5752    1762.1501    -34472094   -7791208.2            0 
    6280     296.7051   -2793.2708     352.8842   -2440.3866        44.02    25.148791    7990.0175    1203.7666    -35381416   -5330490.9            0 
    6300     302.9522   -2793.3342    360.31414   -2433.0201        44.02    25.188803    8194.5025    630.59956    -36344648   -2796836.4            0 
    6320     309.0459   -2793.3378    367.56164   -2425.7762        44.02     25.22883    8393.5039    65.566208    -37286425   -291238.08            0 
    6340    314.47587   -2793.2846    374.01974   -2419.2649        44.02     25.26736    8569.9317   -470.81351    -38128309      2094711            0 
    6360    318.76201   -2793.1853    379.11743   -2414.0679        44.02    25.303012    8707.7281    -960.9941    -38796039    4281594.2            0 
    6380    321.50431    -2793.056    382.37897    -2410.677        44.02    25.334586    8793.6122   -1390.6777    -39227571    6203717.9            0 
    6400    322.43287   -2792.9153    383.48334    -2409.432        44.02    25.361094    8818.8214   -1748.8557    -39381189    7809681.6            0 
    6420    321.44985   -2792.7818    382.31419   -2410.4676        44.02    25.381782    8780.5652   -2027.6822    -39242337    9062189.8            0 
    6440     318.6519    -2792.671    378.98648   -2413.6846        44.02    25.396136    8682.7949   -2222.2526    -38827326      9937385            0 
    6460    314.32233   -2792.5944    373.83713   -2418.7573        44.02    25.403888    8535.9064   -2330.3561    -38182129     10423978            0 
    6480    308.89001   -2792.5576    367.37624   -2425.1813        44.02    25.405007    8355.2775   -2352.2495    -37375800     10522373            0 
    6500    302.86479   -2792.5605    360.21018   -2432.3503        44.02    25.399687    8158.9828   -2290.4747    -36490070     10243890            0 
    6520    296.76837   -2792.5977    352.95945   -2439.6383        44.02    25.388334    7965.3613    -2149.724    -35608199    9610102.5            0 
    6540    291.07911   -2792.6595    346.19296   -2446.4666        44.02    25.371543    7791.0807   -1936.7362    -34806064    8652241.1            0 
    6560    286.19931   -2792.7335    340.38921   -2452.3443        44.02    25.350077    7650.0075   -1660.1982    -34146916    7410554.8            0 
    6580    282.44318   -2792.8062    335.92187   -2456.8843        44.02    25.324837       7552.8   -1330.6217    -33679451    5933530.5            0 
    6600    280.03671   -2792.8651    333.05976   -2459.8054        44.02    25.296832    7506.9191   -960.16484    -33437842    4276856.3            0 
    6620     279.1208   -2792.9002    331.97042   -2460.9298        44.02     25.26714    7516.7403    -562.3731    -33442291    2502046.5            0 
    6640    279.75147   -2792.9052    332.72051   -2460.1847        44.02    25.236873    7583.5544   -151.82231    -33699134    674682.01            0 
    6660     281.8955   -2792.8785     335.2705    -2457.608        44.02    25.207134    7705.3935    256.33776    -34200203   -1137719.4            0 
    6680    285.42358   -2792.8228    339.46659   -2453.3562        44.02     25.17898    7876.7712    646.92374    -34921811   -2868116.8            0 
    6700    290.10601   -2792.7449    345.03562   -2447.7092        44.02    25.153386     8088.519     1005.328    -35824146   -4452576.2            0 
    6720    295.61625   -2792.6542    351.58918    -2441.065        44.02    25.131206    8327.9223    1318.1487    -36851943   -5832913.1            0 
    6740    301.54547   -2792.5615    358.64106   -2433.9205        44.02    25.113155    8579.2771    1573.7995    -37936945   -6959191.4            0 
    6760    307.42841   -2792.4772    365.63789   -2426.8394        44.02    25.099778    8824.8772    1763.0543    -39002184     -7791909            0 
    6780    312.77847   -2792.4097    372.00095   -2420.4088        44.02    25.091441    9046.3539     1879.485    -39967735   -8303722.9            0 
    6800    317.12957   -2792.3643    377.17589   -2415.1884        44.02     25.08832    9226.2693    1919.7581    -40757550   -8480598.6            0 
    6820    320.08236   -2792.3425    380.68778   -2411.6547        44.02      25.0904    9349.8648    1883.7706    -41306964   -8322311.7            0 
    6840    321.35134    -2792.342    382.19704    -2410.145        44.02    25.097478    9406.8211    1774.6123    -41570315   -7842270.9            0 
    6860    320.80618   -2792.3574    381.54866   -2410.8087        44.02    25.109174    9392.7795    1598.3601    -41527607   -7066675.5            0 
    6880    318.49742   -2792.3806    378.80275   -2413.5779        44.02    25.124946    9310.2543    1363.7173    -41188602   -6033054.6            0 
    6900    314.65599   -2792.4028    374.23396   -2418.1688        44.02    25.144115     9168.553    1081.5234    -40592661   -4788279.4            0 
    6920    309.66165   -2792.4154    368.29398   -2424.1214        44.02    25.165886    8982.5383     764.1728    -39803537   -3386178.6            0 
    6940    303.98658   -2792.4115    361.54437   -2430.8671        44.02    25.189383     8770.475     424.9849    -38900127   -1884924.7            0 
    6960    298.13005   -2792.3869    354.57895    -2437.808        44.02    25.213682    8551.5667    77.576133    -37965781   -344378.67            0 
    6980    292.56223   -2792.3406    347.95691   -2444.3837        44.02    25.237847    8343.8515   -264.72321    -37079105    1176428.1            0 
    7000    287.68783   -2792.2746    342.15957   -2450.1151        44.02    25.260961    8162.8485   -589.37388    -36307971    2621535.1            0 
    7020    283.82981   -2792.1939    337.57106   -2454.6229        44.02    25.282165    8020.9616   -885.03582    -35706812    3939928.6            0 
    7040     281.2265   -2792.1053    334.47482   -2457.6305        44.02    25.300685     7927.385   -1141.8693    -35316090    5086993.2            0 
    7060    280.03348   -2792.0165    333.05592   -2458.9606        44.02    25.315859    7888.1913   -1351.7431    -35162560    6025581.1            0 
    7080    280.32399   -2791.9351    333.40144   -2458.5337        44.02    25.327156    7906.3659   -1508.3625    -35259303    6726730.3            0 
    7100    282.08529   -2791.8673    335.49622   -2456.3711        44.02    25.334195      7981.69   -1607.3344    -35605111    7170098.3            0 
    7120    285.21226   -2791.8173    339.21527    -2452.602        44.02    25.336753    8110.5197   -1646.1919    -36183453    7344176.8            0 
    7140    289.50285   -2791.7865    344.31825   -2447.4683        44.02    25.334769    8285.6132   -1624.3892    -36961703    7246341.4            0 
    7160    294.66009   -2791.7739    350.45198   -2441.3219        44.02     25.32835    8496.1949   -1543.2794    -37891493    6882770.7            0 
    7180    300.30466   -2791.7755     357.1653   -2434.6102        44.02    25.317758    8728.3831    -1406.075    -38910732    6268242.3            0 
    7200    305.99813   -2791.7856    363.93679   -2427.8488        44.02    25.303407    8966.0094   -1217.7881    -39947402    5425791.9            0 
    7220    311.27535   -2791.7972    370.21322    -2421.584        44.02    25.285843    9191.7667   -985.13999    -40924820    4386199.7            0 
    7240    315.68322   -2791.8033     375.4557   -2416.3476        44.02     25.26573     9388.606   -716.42548    -41767964    3187257.1            0 
    7260    318.82374   -2791.7976    379.19086   -2412.6067        44.02     25.24382    9541.3053   -421.31934    -42410483    1872767.1            0 
    7280    320.39837   -2791.7755    381.06363   -2410.7119        44.02    25.220931    9638.1155   -110.61108    -42801954    491244.93            0 
    7300    320.24861    -2791.735     380.8855   -2410.8495        44.02    25.197913    9672.2908    204.13335    -42914521   -905676.13            0 
    7320    318.38414   -2791.6766    378.66801   -2413.0086        44.02    25.175617    9643.1889     510.9816    -42747543   -2265108.7            0 
    7340    314.98857   -2791.6035    374.62952    -2416.974        44.02    25.154862    9556.5618    798.10213    -42328608   -3534974.6            0 
    7360    310.39639   -2791.5211    369.16784   -2422.3533        44.02    25.136407    9423.7892    1054.2603    -41709900   -4666141.6            0 
    7380     305.0441   -2791.4358    362.80212   -2428.6337        44.02    25.120919    9260.1507    1269.3181    -40960379   -5614529.2            0 
    7400    299.40896   -2791.3546    356.10001   -2435.2546        44.02    25.108949    9082.6144    1434.7053    -40155942   -6343060.8            0 
    7420    293.95243   -2791.2834    349.61033   -2441.6731        44.02    25.100916    8907.7714    1543.8331    -39370330   -6823351.1            0 
    7440     289.0806   -2791.2268    343.81605   -2447.4107        44.02    25.097087    8750.3741    1592.4214    -38668771   -7037026.2            0 
    7460    285.12416   -2791.1866    339.11048   -2452.0761        44.02    25.097573    8622.5784    1578.7141    -38104767   -6976587.2            0 
    7480    282.33277   -2791.1621    335.79056   -2455.3716        44.02     25.10232    8533.7108    1503.5666    -37719178   -6645753.5            0 
    7500    280.87578   -2791.1503     334.0577   -2457.0926        44.02    25.111117    8490.2685    1370.3948    -37540314   -6059254.9            0 
    7520    280.84269   -2791.1457    334.01834   -2457.1273        44.02    25.123604    8495.9149    1184.9892    -37583959   -5242077.2            0 
    7540    282.24009   -2791.1419    335.68033   -2455.4616        44.02    25.139279     8551.351    955.20706    -37852797   -4228211.9            0 
    7560    284.98577   -2791.1323    338.94589   -2452.1864        44.02    25.157525     8654.088    690.56681    -38335369   -3058994.4            0 
    7580    288.90366    -2791.111    343.60561   -2447.5054        44.02    25.177631    8798.2566    401.77535    -39005145   -1781146.8            0 
    7600    293.72466   -2791.0738    349.33943   -2441.7344        44.02    25.198816    8974.6345    100.22428    -39820555    -444661.5            0 
    7620    299.09705    -2791.019    355.72904     -2435.29        44.02    25.220263    9171.0262    -202.5102    -40726580    899338.07            0 
    7640    304.60758   -2790.9472    362.28295   -2428.6643        44.02    25.241148    9373.0245   -495.13252    -41658079      2200631            0 
    7660    309.81136   -2790.8616    368.47204   -2422.3895        44.02    25.260673    9565.0848   -767.03703    -42544567    3411736.8            0 
    7680    314.26805   -2790.7672    373.77257   -2416.9947        44.02    25.278093     9731.817   -1008.6448    -43316025    4489477.3            0 
    7700    317.58195   -2790.6704    377.71393   -2412.9565        44.02    25.292744    9859.4104   -1211.6628    -43909374    5396229.1            0 
    7720    319.44381   -2790.5778    379.92832   -2410.6494        44.02    25.304067    9937.1124   -1369.2726    -44275236    6100881.6            0 
    7740    319.67024   -2790.4952    380.19763   -2410.2976        44.02    25.311628    9958.6209   -1476.2577    -44384326    6579523.5            0 
    7760    318.23356   -2790.4272    378.48893   -2411.9383        44.02    25.315131    9923.1387   -1529.0846    -44232307    6815909.3            0 
    7780    315.27279   -2790.3761    374.96755   -2415.4086        44.02    25.314427    9835.7581   -1525.9527    -43841589    6801759.6            0 
    7800    311.07836    -2790.342    369.97893   -2420.3631        44.02    25.309521    9706.9123   -1466.8252    -43258892    6536939.9            0 
    7820    306.05096   -2790.3224    363.99963   -2426.3228        44.02    25.300574    9550.9034   -1353.4463    -42548592      6029535            0 
    7840    300.64475   -2790.3128    357.56979    -2432.743        44.02    25.287893    9383.8761   -1189.3408    -41783546    5295802.4            0 
    7860    295.31114   -2790.3072     351.2263   -2439.0809        44.02    25.271927     9221.812   -979.78542    -41035999    4359962.6            0 
    7880     290.4565    -2790.299    345.45246   -2444.8465        44.02    25.253248    9079.0218   -731.73671    -40370739    3253769.3            0 
    7900    286.41842    -2790.282     340.6498   -2449.6322        44.02    25.232534    8967.3049   -453.70039    -39841275    2015801.2            0 
    7920    283.45726    -2790.251    337.12797   -2453.1231        44.02    25.210547    8895.6499   -155.52924    -39488476    690441.71            0 
    7940    281.75549   -2790.2033    335.10397   -2455.0993        44.02    25.188098    8870.2117    151.85586    -39340492   -673462.28            0 
    7960    281.41798    -2790.138    334.70257   -2455.4355        44.02    25.166025    8894.3204    456.83135    -39412849   -2024289.1            0 
    7980     282.4696   -2790.0575     335.9533   -2454.1042        44.02    25.145155    8968.3848    747.50551    -39708090   -3309586.8            0 
    8000    284.84966   -2789.9658    338.78401   -2451.1818        44.02    25.126275    9089.6862    1012.2107    -40214941   -4478219.2            0 
    8020     288.4066   -2789.8692    343.01443   -2446.8547        44.02    25.110099    9252.1834    1240.0274    -40907516   -5482601.2            0 
    8040    292.89755   -2789.7741    348.35572   -2441.4184        44.02    25.097243    9446.5054    1421.3081    -41745304   -6280895.6            0 
    8060    297.99698    -2789.687    354.42068   -2435.2664        44.02    25.088198    9660.2844    1548.1668    -42674635   -6839033.7            0 
    8080    303.31554   -2789.6129    360.74628   -2428.8666        44.02    25.083313    9878.8795    1614.8973    -43631789   -7132428.2            0 
    8100     308.4279   -2789.5546    366.82663    -2422.728        44.02    25.082781    10086.432    1618.2891    -44547536   -7147257.1            0 
    8120    312.90657   -2789.5124     372.1533   -2417.3591        44.02    25.086628    10267.151    1557.8164    -45352646     -6881230            0 
    8140    316.35955   -2789.4837    376.26009   -2413.2236        44.02    25.094716     10406.72    1435.6833    -45983983   -6343781.9            0 
    8160    318.46973   -2789.4637    378.76981   -2410.6939        44.02    25.106745    10493.771    1256.7233    -46390857     -5555677            0 
    8180    319.03285   -2789.4461    379.43955   -2410.0065        44.02     25.12226    10521.265    1028.1586    -46541147   -4548048.5            0 
    8200    317.98837   -2789.4239    378.19731   -2411.2265        44.02    25.140674    10487.602    759.23796    -46426239   -3360932.3            0 
    8220    315.43465   -2789.3906    375.16005   -2414.2306        44.02    25.161281     10397.12    460.77728    -46063422   -2041387.8            0 
    8240    311.62049   -2789.3416    370.62371   -2418.7179        44.02    25.183291    10259.724    144.63821    -45494463   -641326.79            0 
    8260    306.91128   -2789.2741    365.02285   -2424.2512        44.02    25.205855    10089.573   -176.81974    -44780054    784807.93            0 
    8280    301.73713   -2789.1884      358.869   -2430.3193        44.02    25.228101     9903.128    -491.2743    -43991356    2182358.8            0 
    8300    296.53772   -2789.0873    352.68512   -2436.4022        44.02    25.249162    9717.0977   -786.92775    -43201014    3498617.8            0 
    8320    291.71792   -2788.9761    346.95273   -2442.0234        44.02    25.268218    9546.7998    -1052.926    -42475925    4684744.6            0 
    8340    287.62082   -2788.8616    342.07987   -2446.7818        44.02     25.28452    9405.1801   -1279.6888    -41872823      5697337            0 
    8360    284.51635   -2788.7511    338.38759   -2450.3635        44.02     25.29742    9302.4138   -1459.1582    -41436427    6499666.7            0 
    8380    282.59916   -2788.6515    336.10739   -2452.5441        44.02    25.306396    9245.8453   -1584.9737    -41199063    7062600.2            0 
    8400    281.98863    -2788.568    335.38126   -2453.1867        44.02    25.311068    9240.0094   -1652.5899    -41180659    7365254.1            0 
    8420    282.72672   -2788.5038     336.2591   -2452.2447        44.02    25.311213    9286.5655   -1659.3537    -41388387    7395441.3            0 
    8440    284.77282   -2788.4592    338.69262   -2449.7666        44.02    25.306776    9384.1154   -1604.5543    -41815816    7149957.9            0 
    8460     287.9981   -2788.4318    342.52859   -2445.9032        44.02    25.297869    9527.9915   -1489.4548    -42441987    6634737.1            0 
    8480      292.184   -2788.4164    347.50705   -2440.9093        44.02    25.284771    9710.1841   -1317.3057    -43231161    5864870.1            0 
    8500    297.02907    -2788.406    353.26951   -2435.1365        44.02    25.267922    9919.5644   -1093.3317    -44133923      4864463            0 
    8520    302.16603   -2788.3928    359.37912   -2429.0137        44.02    25.247906    10142.473   -824.68053    -45089939    3666280.8            0 
    8540    307.18766    -2788.369    365.35156   -2423.0174        44.02    25.225437    10363.638   -520.31342    -46032157    2311112.9            0 
    8560    311.67869   -2788.3282    370.69293   -2417.6352        44.02     25.20133     10567.32   -190.82201    -46891995    846803.34            0 
    8580    315.25126   -2788.2663    374.94195   -2413.3244        44.02    25.176474    10738.615    151.84635    -47605110   -673105.14            0 
    8600    317.58207   -2788.1823    377.71408   -2410.4682        44.02    25.151798    10864.838    494.76603    -48117459   -2191142.9            0 
    8620    318.44889   -2788.0784    378.74503   -2409.3333        44.02    25.128237    10936.911    824.50528    -48391280   -3648047.2            0 
    8640    317.76199   -2787.9597    377.92806   -2410.0317        44.02    25.106692    10950.589    1127.6804    -48410255   -4985191.3            0 
    8660    315.58268    -2787.834    375.33612   -2412.4978        44.02    25.087999    10907.215    1391.5627    -48182608   -6147177.7            0 
    8680    312.12105   -2787.7098    371.21905   -2416.4907        44.02    25.072892    10813.721    1604.6981    -47740833   -7084432.9            0 
    8700    307.70883   -2787.5958    365.97141   -2421.6244        44.02    25.061975    10681.689    1757.4952    -47137402   -7755628.2            0 
    8720    302.75256   -2787.4991    360.07671   -2427.4223        44.02      25.0557    10525.666    1842.7393    -46437259   -8129766.9            0 
    8740    297.67985    -2787.424    354.04351   -2433.3805        44.02    25.054347    10361.198    1855.9943    -45709188     -8187803            0 
    8760     292.8933   -2787.3715    348.35066   -2439.0209        44.02    25.058011    10203.116    1795.8644    -45018384   -7923694.3            0 
    8780    288.74049   -2787.3391    343.41155   -2443.9275        44.02    25.066601    10064.408    1664.0958    -44421593   -7344820.2            0 
    8800    285.50001   -2787.3205    339.55749    -2447.763        44.02    25.079837    9955.6629    1465.5099    -43964826   -6471731.9            0 
    8820    283.37776   -2787.3074    337.03341    -2450.274        44.02    25.097258    9884.9101    1207.7694    -43682699   -5337239.9            0 
    8840    282.50674   -2787.2901    335.99748   -2451.2927        44.02    25.118239    9857.5736     900.9941    -43598314   -3984890.5            0 
    8860    282.94521   -2787.2593    336.51896   -2450.7404        44.02    25.142014    9876.3853      557.255    -43722859   -2466927.6            0 
    8880    284.67175   -2787.2073    338.57241   -2448.6349        44.02    25.167697    9941.1913    189.98462    -44054712    -841879.2            0 
    8900    287.57933   -2787.1296    342.03052   -2445.0991        44.02    25.194321    10048.726    -186.6501    -44578362    828062.57            0 
    8920    291.47263   -2787.0251    346.66099   -2440.3641        44.02     25.22087    10192.515   -558.36606    -45263890    2479684.5            0 
    8940     296.0732   -2786.8968    352.13265   -2434.7642        44.02    25.246322    10363.064   -911.33106    -46067722    4051247.1            0 
    8960    301.03474   -2786.7513    358.03362   -2428.7177        44.02    25.269684    10548.412   -1232.6518    -46935051    5484707.5            0 
    8980    305.96732   -2786.5977    363.90015   -2422.6975        44.02     25.29003    10734.999   -1510.7628    -47803728    6727570.5            0 
    9000    310.46771   -2786.4464    369.25267   -2417.1938        44.02    25.306539    10908.752   -1735.7133    -48609169    7734335.5            0 
    9020    314.15288   -2786.3079     373.6356   -2412.6723        44.02    25.318518    11056.259   -1899.3677    -49289776    8467581.3            0 
    9040    316.69495   -2786.1908    376.65899   -2409.5318        44.02    25.325433    11166.006   -1995.5364    -49792635    8898739.3            0 
    9060    317.85605    -2786.101    378.03993   -2408.0611        44.02    25.326928      11229.6   -2020.0626    -50079177    9008640.5            0 
    9080    317.51963   -2786.0407    377.63982   -2408.4009        44.02    25.322834     11242.88   -1970.8879    -50130295    8787922.4            0 
    9100    315.71184   -2786.0077    375.48973    -2410.518        44.02    25.313186    11206.674   -1848.1162    -49949821    8237363.7            0 
    9120    312.60471   -2785.9959    371.79429   -2414.2016        44.02     25.29822    11126.934   -1654.0856    -49565086    7368182.5            0 
    9140    308.49593   -2785.9958    366.90754   -2419.0883        44.02    25.278372    11014.027    -1393.444    -49023650    6202282.6            0 
    9160    303.76734   -2785.9957    361.28363    -2424.712        44.02    25.254273    10881.273   -1073.2134    -48386587    4772378.1            0 
    9180    298.83323   -2785.9833    355.41527    -2430.568        44.02    25.226726    10743.112    -702.8105    -47720109    3121872.5            0 
    9200    294.09291   -2785.9475    349.77741   -2436.1701        44.02    25.196689    10613.414   -293.98746    -47087869    1304358.6            0 
    9220     289.8977   -2785.8804    344.78786   -2441.0926        44.02    25.165242    10504.299    139.34563    -46545601    -617408.7            0 
    9240    286.53412   -2785.7782    340.78741   -2444.9908        44.02    25.133546    10425.535    581.45334    -46138405   -2573184.3            0 
    9260    284.21864   -2785.6425    338.03351    -2447.609        44.02    25.102805    10384.344    1015.2677    -45899904   -4487539.8            0 
    9280    283.09703   -2785.4799    336.69953   -2448.7804        44.02    25.074214    10385.377    1423.0424    -45852188   -6282780.6            0 
    9300     283.2429   -2785.3019    336.87302   -2448.4289        44.02    25.048914     10430.66    1787.1543    -46005649   -7882397.5            0 
    9320    284.65319   -2785.1227    338.55034   -2446.5723        44.02    25.027946    10519.434    2091.0057    -46358359   -9214847.4            0 
    9340    287.24193   -2784.9571    341.62924   -2443.3278        44.02    25.012207    10647.914    2319.7335    -46895055    -10216404            0 
    9360    290.83647   -2784.8186    345.90439   -2438.9142        44.02    25.002414    10809.205    2461.2869    -47586766    -10835582            0 
    9380    295.18096   -2784.7166    351.07147   -2433.6451        44.02    24.999076     10993.45    2507.1062    -48391430    -11035824            0 
    9400    299.94977   -2784.6549    356.74322   -2427.9117        44.02    25.002466    11188.374    2452.6861    -49256131    -10797740            0 
    9420    304.77028   -2784.6307    362.47647   -2422.1543        44.02    25.012612    11380.169    2297.9273    -50120824    -10120530            0 
    9440    309.25183   -2784.6349    367.80656   -2416.8283        44.02    25.029284    11554.605    2047.2361    -50923000   -9022439.9            0 
    9460    313.01756   -2784.6528    372.28531   -2412.3675        44.02    25.051999    11698.237     1709.362    -51602798     -7540213            0 
    9480    315.73746   -2784.6669     375.5202   -2409.1467        44.02    25.080028    11799.632     1297.068    -52108304   -5727921.9            0 
    9500    317.16133   -2784.6588    377.21367   -2407.4451        44.02    25.112418    11850.522    826.21899    -52400623   -3653322.4            0 
    9520    317.14951   -2784.6128    377.19961   -2407.4132        44.02     25.14802    11846.894     315.1692    -52458847   -1395541.7            0 
    9540    315.69603   -2784.5181    375.47093   -2409.0472        44.02    25.185531     11789.75   -216.19329    -52283676    958792.07            0 
    9560     312.9366    -2784.371    372.18902    -2412.182        44.02    25.223539    11685.284   -747.41781    -51898606    3319597.6            0 
    9580    309.13483   -2784.1754    367.66741   -2416.5079        44.02    25.260579    11544.279   -1258.3919    -51347643    5597223.9            0 
    9600    304.64646   -2783.9427     362.3292   -2421.6135        44.02    25.295193    11380.715    -1730.127    -50689491      7705990            0 
    9620    299.87046   -2783.6904     356.6489   -2427.0415        44.02    25.325982    11209.938   -2145.3732    -49989629    9567117.7            0 
    9640    295.20092   -2783.4397    351.09521   -2432.3444        44.02    25.351666    11046.903   -2489.0469    -49312549     11110951            0 
    9660    290.99135   -2783.2123    346.08858   -2437.1237        44.02    25.371125    10904.897   -2748.4909    -48716007     12278506            0 
    9680    287.53507   -2783.0277    341.97789   -2441.0498        44.02    25.383446    10794.866   -2913.6036    -48247879     13022442            0 
    9700    285.05822   -2782.9002    339.03206   -2443.8682        44.02    25.387952    10725.211   -2976.8958    -47945066     13307689            0 
    9720     283.7185   -2782.8366    337.43867   -2445.3979        44.02     25.38423    10701.782   -2933.5365    -47833317     13111937            0 
    9740    283.60395   -2782.8349    337.30243   -2445.5324        44.02    25.372152    10727.855    -2781.443    -47927039     12426218            0 
    9760    284.72869   -2782.8838    338.64014   -2444.2437        44.02    25.351893    10803.982   -2521.4508    -48228603     11255701            0 
    9780    287.02646    -2782.964    341.37297    -2441.591        44.02    25.323935    10927.742   -2157.5709    -48727268    9620735.1            0 
    9800    290.34573   -2783.0498    345.32072   -2437.7291        44.02    25.289071    11093.515   -1697.3145    -49398352    7558015.8            0 
    9820    294.45152   -2783.1126    350.20392   -2432.9087        44.02    25.248394    11292.481   -1152.0263    -50203451    5121652.6            0 
    9840    299.03721   -2783.1249    355.65788   -2427.4671        44.02    25.203277    11512.982   -537.13961    -51092280    2383762.2            0 
    9860      303.746   -2783.0648    361.25824   -2421.8066        44.02    25.155329    11741.229    127.74505    -52006064   -565778.22            0 
    9880    308.19879   -2782.9198    366.55413   -2416.3657        44.02    25.106343    11962.278    819.07998    -52881990   -3620876.5            0 
    9900    312.02481   -2782.6899    371.10459   -2411.5853        44.02    25.058226    12161.176    1509.9899    -53658231   -6662404.6            0 
    9920    314.89287   -2782.3888     374.5157   -2407.8731        44.02    25.012914    12324.133    2171.3266    -54278910   -9563064.6            0 
    9940    316.54256   -2782.0426    376.47775   -2405.5649        44.02     24.97229    12439.731    2772.6766    -54699052    -12191742            0 
    9960    316.81412   -2781.6868    376.80072   -2404.8861        44.02      24.9381    12500.252    3284.5129    -54889917    -14422576            0 
    9980    315.67298   -2781.3604    375.44352   -2405.9169        44.02    24.911873    12502.744    3679.8388    -54843119    -16141499            0 
   10000    313.22188      -2781.1    372.52831   -2408.5717        44.02    24.894863    12449.637     3935.984    -54572879    -17253287            0 
   10020    309.69297   -2780.9333    368.33124   -2412.6021        44.02    24.887991    12348.603    4036.2074    -54115051    -17687732            0 
   10040    305.41768   -2780.8738    363.24644   -2417.6274        44.02    24.891808    12211.505    3970.9633    -53522461    -17404483            0 
   10060    300.78044   -2780.9178    357.73118   -2423.1866        44.02    24.906469    12052.709    3738.7225    -52857579    -16396234            0 
   10080    296.17017   -2781.0439    352.24798   -2428.7959        44.02     24.93171    11887.221    3346.2757    -52184659    -14690017            0 
   10100    291.94201   -2781.2157    347.21924   -2433.9964        44.02    24.966841    11729.182    2808.4796    -51563431    -12346477            0 
   10120    288.39514   -2781.3871    343.00081   -2438.3863        44.02    25.010754    11590.928    2147.4417    -51045268     -9457051            0 
   10140    285.76428   -2781.5096     339.8718   -2441.6378        44.02    25.061943     11482.55    1391.1857    -50671477   -6139119.5            0 
   10160    284.21806   -2781.5405    338.03282   -2443.5077        44.02    25.118551    11411.754    572.09455    -50472805   -2530250.1            0 
   10180    283.85815   -2781.4498    337.60476   -2443.8451        44.02    25.178437     11383.68   -275.60591    -50468675    1221927.2            0 
   10200    284.71523   -2781.2262    338.62413   -2442.6021        44.02     25.23927    11400.756   -1117.5315    -50666496    4966504.9            0 
   10220    286.74211   -2780.8788    341.03478    -2439.844        44.02    25.298629    11462.437   -1920.9541    -51060418    8557095.4            0 
   10240    289.80754   -2780.4361    344.68064   -2435.7554        44.02    25.354121    11564.988   -2656.3065    -51630243     11858737            0 
   10260    293.69621   -2779.9417     349.3056   -2430.6361        44.02     25.40349    11701.538   -3298.1173    -52341565     14752675            0 
[...]
  243460    306.19481   -2369.9534    364.17072   -2005.7826        44.02    27.159374   -19751.864   -23638.824     94480739 1.1302319e+08            0 
  243480    306.51261   -2369.8987    364.54869     -2005.35        44.02    27.159623   -19854.888   -23640.648     94974281 1.1303296e+08            0 
  243500     306.2881    -2369.844    364.28168   -2005.5623        44.02    27.159872   -19956.566   -23648.267     95461381 1.1307046e+08            0 
  243520    305.33654   -2369.7894    363.14994   -2006.6395        44.02     27.16012   -20061.158   -23663.599     95962416 1.1314485e+08            0 
  243540     303.5747   -2369.7351    361.05451   -2008.6805        44.02    27.160369   -20170.552   -23687.496     96486412 1.1326022e+08            0 
  243560    301.07255   -2369.6809     358.0786   -2011.6023        44.02    27.160618   -20283.061   -23719.214     97025305 1.1341301e+08            0 
  243580    298.05127    -2369.627    354.48526   -2015.1417        44.02    27.160867   -20393.481   -23756.433     97554207 1.1359211e+08            0 
  243600    294.83462   -2369.5733    350.65955   -2018.9138        44.02    27.161115    -20494.23   -23795.775     98036857 1.1378139e+08            0 
  243620    291.77327     -2369.52    347.01855   -2022.5014        44.02    27.161364   -20577.124   -23833.592     98434111 1.1396338e+08            0 
  243640    289.17611    -2369.467    343.92964   -2025.5373        44.02    27.161613   -20634.977   -23866.678     98711605 1.1412276e+08            0 
  243660     287.2775   -2369.4142    341.67154   -2027.7427        44.02    27.161862   -20662.357   -23892.611     98843351 1.1424794e+08            0 
  243680    286.24317   -2369.3617    340.44137   -2028.9203        44.02    27.162111   -20655.422   -23909.688     98810976 1.1433077e+08            0 
  243700    286.19618   -2369.3093    340.38549   -2028.9238        44.02    27.162359   -20611.299   -23916.653     98600727 1.1436525e+08            0 
  243720    287.24084    -2369.257    341.62794   -2027.6291        44.02    27.162608    -20528.46   -23912.454     98205299 1.1434635e+08            0 
  243740    289.46585   -2369.2048    344.27424   -2024.9306        44.02    27.162857   -20404.264   -23896.202     97612051 1.142698e+08            0 
  243760    292.90775   -2369.1527    348.36784   -2020.7848        44.02    27.163106   -20234.743   -23867.604     96802155 1.1413406e+08            0 
  243780    297.46319   -2369.1003    353.78583   -2015.3145        44.02    27.163354   -20023.963   -23827.447     95794943 1.1394299e+08            0 
  243800    302.78558   -2369.0479    360.11597   -2008.9319        44.02    27.163603   -19780.707   -23779.181     94632374 1.1371315e+08            0 
  243820    308.27399   -2368.9952    366.64358   -2002.3516        44.02    27.163852   -19519.185   -23729.409     93382409 1.1347609e+08            0 
  243840     313.2315   -2368.9424    372.53976   -1996.4026        44.02    27.164101   -19265.768   -23685.305     92171176 1.1326616e+08            0 
  243860    317.08452   -2368.8896    377.12232   -1991.7672        44.02     27.16435   -19029.166   -23652.757     91040345 1.131115e+08            0 
  243880     319.4806   -2368.8368    379.97208   -1988.8647        44.02    27.164598   -18813.984   -23635.353     90011940 1.1302929e+08            0 
  243900    320.23965   -2368.7843    380.87486   -1987.9094        44.02    27.164847   -18625.051   -23634.897     89109058 1.1302814e+08            0 
  243920    319.25848    -2368.732    379.70791   -1989.0241        44.02    27.165096   -18465.479   -23652.399     88346595 1.1311291e+08            0 
  243940    316.45355   -2368.6801    376.37188   -1992.3082        44.02    27.165345   -18338.027   -23688.663     87737749 1.1328742e+08            0 
  243960    311.80557   -2368.6287    370.84384   -1997.7849        44.02    27.165593    -18244.03   -23743.828     87288912 1.1355235e+08            0 
  243980    305.58386    -2368.578    363.44409   -2005.1339        44.02    27.165842   -18177.627   -23815.092     86972070 1.1389428e+08            0 
  244000    298.67235   -2368.5278    355.22394   -2013.3039        44.02    27.166091   -18118.727   -23893.382     86691111 1.1426984e+08            0 
  244020    292.47974   -2368.4784    347.85879   -2020.6196        44.02     27.16634   -18034.264   -23964.315     86287854 1.1461021e+08            0 
  244040    288.15433   -2368.4296    342.71439   -2025.7152        44.02    27.166588   -17896.612   -24016.226     85630159 1.1485961e+08            0 
  244060    285.97128   -2368.3814      340.118   -2028.2634        44.02    27.166837   -17698.631   -24046.378     84683858 1.1500492e+08            0 
  244080    285.52124   -2368.3335    339.58275   -2028.7508        44.02    27.167086   -17449.516   -24058.994     83492933 1.1506637e+08            0 
  244100    286.23479    -2368.286    340.43141   -2027.8546        44.02    27.167335   -17162.479   -24059.906     82120577 1.1507183e+08            0 
  244120    287.70486   -2368.2388    342.17983    -2026.059        44.02    27.167584   -16847.054   -24053.274     80612386 1.1504121e+08            0 
  244140     289.7104   -2368.1919    344.56509   -2023.6268        44.02    27.167832   -16508.456   -24041.357     78993317 1.1498531e+08            0 
  244160    292.12258   -2368.1452      347.434   -2020.7112        44.02    27.168081   -16149.769   -24025.473     77278108 1.1491044e+08            0 
  244180     294.8305   -2368.0988    350.65465   -2017.4441        44.02     27.16833   -15773.705   -24006.756     75479732 1.1482202e+08            0 
  244200    297.70795   -2368.0526    354.07693   -2013.9757        44.02    27.168579    -15383.41   -23986.488     73613246 1.1472618e+08            0 
  244220    300.60722   -2368.0067    357.52516   -2010.4815        44.02    27.168827   -14982.633   -23966.159     71696572 1.1463005e+08            0 
  244240    303.36717    -2367.961    360.80768   -2007.1533        44.02    27.169076   -14575.542   -23947.387     69749650 1.1454138e+08            0 
  244260    305.82649   -2367.9156    363.73266   -2004.1829        44.02    27.169325   -14166.415   -23931.787     67792952 1.1446789e+08            0 
  244280    307.83513   -2367.8705    366.12162   -2001.7489        44.02    27.169574   -13759.343   -23920.877     65846043 1.1441683e+08            0 
  244300    309.25912   -2367.8258    367.81524   -2000.0105        44.02    27.169823   -13358.165   -23915.971     63927293 1.143945e+08            0 
  244320    309.97685   -2367.7814    368.66886   -1999.1125        44.02    27.170071   -12966.527   -23918.248     62054144 1.1440654e+08            0 
  244340    309.86627   -2367.7374    368.53735      -1999.2        44.02     27.17032   -12588.161     -23928.9     60244450 1.1445865e+08            0 
  244360    308.78558   -2367.6939    367.25203   -2000.4418        44.02    27.170569   -12227.378   -23949.312     58518842 1.1455745e+08            0 
  244380    306.55888   -2367.6509    364.60373   -2003.0471        44.02    27.170818   -11889.499   -23981.135     56902773 1.1471086e+08            0 
  244400    303.00658   -2367.6084    360.37882   -2007.2296        44.02    27.171066   -11581.723   -24026.363     55430697 1.149284e+08            0 
  244420    298.09297   -2367.5665    354.53485   -2013.0317        44.02    27.171315   -11309.733   -24085.683     54129804 1.1521338e+08            0 
  244440    292.19207   -2367.5253    347.51666   -2020.0087        44.02    27.171564   -11060.446   -24154.683     52937503 1.1554467e+08            0 
  244460      286.194   -2367.4847    340.38289   -2027.1018        44.02    27.171813    -10813.06   -24224.566     51754280 1.1588019e+08            0 
  244480    281.13531   -2367.4447    334.36637   -2033.0784        44.02    27.172061   -10542.588   -24285.065     50460571 1.1617082e+08            0 
  244500    277.68801   -2367.4053    330.26634    -2037.139        44.02     27.17231   -10232.186    -24329.57     48975797 1.1638494e+08            0 
  244520    276.06548   -2367.3664    328.33661   -2039.0298        44.02    27.172559   -9875.7517   -24356.036     47270750 1.1651275e+08            0 
  244540    276.24807    -2367.328    328.55376   -2038.7742        44.02    27.172808   -9472.7312   -24364.724     45342775 1.1655551e+08            0 
  244560    278.17733   -2367.2898    330.84831   -2036.4415        44.02    27.173057   -9023.5289    -24356.28     43193798 1.165163e+08            0 
  244580    281.79588    -2367.252    335.15201      -2032.1        44.02    27.173305   -8528.5255   -24331.374     40825636 1.1639832e+08            0 
  244600    286.92722   -2367.2144    341.25494   -2025.9595        44.02    27.173554   -7999.9367   -24291.767     38296732 1.1621001e+08            0 
  244620    293.03194   -2367.1769    348.51554   -2018.6614        44.02    27.173803    -7496.407   -24242.787     35887680 1.1597685e+08            0 
  244640    299.08918   -2367.1396    355.71968   -2011.4199        44.02    27.174052   -7051.4816   -24194.466     33758992 1.1574684e+08            0 
  244660    303.97781   -2367.1024    361.53394   -2005.5684        44.02      27.1743   -6695.5328   -24157.762     32056001 1.1557241e+08            0 
  244680    307.14096   -2367.0654    365.29602   -2001.7694        44.02    27.174549   -6445.1694   -24138.068     30858192 1.1547937e+08            0 
  244700    308.76052   -2367.0286    367.22223   -1999.8064        44.02    27.174798   -6298.3801   -24133.538     30155954 1.154589e+08            0 
  244720    309.30529   -2366.9922    367.87014    -1999.122        44.02    27.175047   -6245.3813   -24139.542     29902488 1.1548883e+08            0 
  244740    309.11679   -2366.9561    367.64595   -1999.3101        44.02    27.175296   -6278.8851   -24152.707     30062933 1.1555303e+08            0 
  244760    308.36021   -2366.9203    366.74613   -2000.1741        44.02    27.175544   -6395.4851   -24171.397     30621001 1.1564367e+08            0 
  244780    307.11737   -2366.8848    365.26796   -2001.6169        44.02    27.175793   -6593.4857   -24194.792     31568590 1.1575682e+08            0 
  244800    305.45564   -2366.8498    363.29159   -2003.5582        44.02    27.176042   -6871.2617   -24222.216     32897934 1.1588925e+08            0 
  244820    303.45887   -2366.8151    360.91674   -2005.8984        44.02    27.176291   -7226.5399   -24252.837     34598164 1.1603699e+08            0 
  244840    301.23612   -2366.7808    358.27314   -2008.5077        44.02    27.176539   -7656.2362   -24285.586     36654535 1.1619491e+08            0 
  244860    298.91787   -2366.7469    355.51594    -2011.231        44.02    27.176788   -8156.6193   -24319.186     39049200 1.1635691e+08            0 
  244880    296.64487   -2366.7134    352.81256   -2013.9009        44.02    27.177037   -8723.6633   -24352.272     41762903 1.1651645e+08            0 
  244900    294.55479   -2366.6803    350.32673   -2016.3536        44.02    27.177286   -9353.4538   -24383.375     44776921 1.1666651e+08            0 
  244920    292.77163   -2366.6476    348.20595   -2018.4416        44.02    27.177535   -10042.504   -24410.391     48074576  1.16797e+08            0 
  244940    291.40196   -2366.6152    346.57694   -2020.0382        44.02    27.177783   -10787.972   -24433.339     51642278 1.1690804e+08            0 
  244960    290.53997   -2366.5832    345.55174   -2021.0314        44.02    27.178032   -11587.508    -24451.32     55468789 1.1699531e+08            0 
  244980    290.28265   -2366.5515     345.2457   -2021.3058        44.02    27.178281   -12438.961   -24463.412     59543818 1.1705439e+08            0 
  245000    290.75537   -2366.5202    345.80792   -2020.7123        44.02     27.17853   -13339.825   -24468.421     63855384 1.1707958e+08            0 
  245020    292.14374   -2366.4892    347.45917     -2019.03        44.02    27.178778   -14286.597   -24464.576     68386728 1.1706241e+08            0 
  245040    294.70617   -2366.4584    350.50678   -2015.9516        44.02    27.179027   -15274.675   -24449.413     73115833 1.1699106e+08            0 
  245060    298.69715   -2366.4279    355.25342   -2011.1745        44.02    27.179276   -16300.434   -24420.507     78025353 1.1685395e+08            0 
  245080    304.12668   -2366.3977      361.711   -2004.6867        44.02    27.179525   -17367.002    -24377.79     83130265 1.1665074e+08            0 
  245100    310.46647   -2366.3676    369.25119   -1997.1164        44.02    27.179773   -18490.638   -24326.365     88508382 1.1640585e+08            0 
  245120    316.68333   -2366.3377    376.64517   -1989.6925        44.02    27.180022   -19698.512   -24276.159     94289749 1.1616679e+08            0 
  245140    321.71865    -2366.308    382.63389   -1983.6741        44.02    27.180271   -21015.879   -24237.224 1.0059524e+08 1.1598168e+08            0 
  245160    324.89853   -2366.2786    386.41586   -1979.8627        44.02     27.18052   -22456.061    -24215.67 1.0748864e+08 1.1587974e+08            0 
  245180    325.92618   -2366.2495    387.63809   -1978.6114        44.02    27.180769   -24021.057   -24214.185 1.1497952e+08 1.1587386e+08            0 
  245200    324.68986   -2366.2207    386.16767    -1980.053        44.02    27.181017     -25706.8    -24234.38 1.2304844e+08 1.1597173e+08            0 
  245220    321.17176   -2366.1923    381.98346   -1984.2088        44.02    27.181266    -27505.62   -24276.406 1.3165869e+08 1.1617409e+08            0 
  245240    315.57499   -2366.1643    375.32697   -1990.8373        44.02    27.181515   -29403.428   -24338.301 1.4074288e+08 1.1647155e+08            0 
  245260    308.63495   -2366.1367    367.07288   -1999.0639        44.02    27.181764   -31373.203   -24413.009 1.5017168e+08 1.1683033e+08            0 
  245280     301.7024   -2366.1097     358.8277    -2007.282        44.02    27.182012    -33375.12   -24487.588 1.5975449e+08 1.1718851e+08            0 
  245300    296.10799    -2366.083    352.17402    -2013.909        44.02    27.182261   -35373.913   -24549.306 1.6932253e+08 1.1748513e+08            0 
  245320    292.39922   -2366.0568    347.76303   -2018.2938        44.02     27.18251   -37356.952   -24592.949 1.7881534e+08 1.1769525e+08            0 
  245340    290.37343    -2366.031    345.35366   -2020.6773        44.02    27.182759   -39331.087    -24620.36 1.8826571e+08 1.1782767e+08            0 
  245360    289.59247   -2366.0055    344.42483   -2021.5807        44.02    27.183008   -41308.311   -24635.777 1.9773103e+08 1.1790269e+08            0 
  245380    289.71047   -2365.9804    344.56518   -2021.4152        44.02    27.183256   -43297.337   -24642.653 2.0725302e+08 1.1793683e+08            0 
  245400    290.52045   -2365.9557    345.52853   -2020.4272        44.02    27.183505   -45302.718   -24642.836 2.1685347e+08 1.1793893e+08            0 
  245420    291.89757   -2365.9313    347.16639   -2018.7649        44.02    27.183754   -47326.438   -24637.729 2.2654187e+08 1.1791572e+08            0 
  245440    293.74458   -2365.9072    349.36312   -2016.5441        44.02    27.184003   -49369.437   -24628.293 2.3632273e+08 1.1787179e+08            0 
  245460     295.9595   -2365.8834    351.99742    -2013.886        44.02    27.184251   -51432.357   -24615.538 2.4619912e+08 1.1781196e+08            0 
  245480    298.42124     -2365.86    354.92528   -2010.9347        44.02      27.1845   -53515.813   -24600.651 2.5617399e+08 1.1774193e+08            0 
  245500     300.9883   -2365.8369    357.97839   -2007.8585        44.02    27.184749   -55620.314   -24584.964 2.6624978e+08 1.1766807e+08            0 
  245520    303.50675   -2365.8141    360.97369   -2004.8404        44.02    27.184998    -57745.95   -24570.025 2.7642692e+08 1.1759779e+08            0 
  245540     305.8229   -2365.7917    363.72839   -2002.0633        44.02    27.185247   -59892.055   -24557.344 2.8670223e+08 1.1753831e+08            0 
  245560    307.79451   -2365.7695    366.07331   -1999.6962        44.02    27.185495   -62056.932   -24548.179 2.9706758e+08 1.1749567e+08            0 
  245580    309.29442   -2365.7477    367.85722   -1997.8905        44.02    27.185744   -64237.825   -24543.838 3.0750979e+08 1.1747612e+08            0 
  245600    310.20096   -2365.7263     368.9354   -1996.7909        44.02    27.185993   -66431.192   -24545.566 3.180119e+08 1.1748562e+08            0 
  245620    310.36781   -2365.7052    369.13385   -1996.5713        44.02    27.186242   -68633.432   -24554.775 3.2855668e+08 1.1753093e+08            0 
  245640    309.56626   -2365.6844    368.18053   -1997.5039        44.02     27.18649   -70842.142    -24573.66 3.3913262e+08 1.1762256e+08            0 
  245660    307.41815    -2365.664    365.62569   -2000.0383        44.02    27.186739   -73057.376   -24605.819 3.4973999e+08 1.1777773e+08            0 
  245680    303.45219    -2365.644     360.9088   -2004.7352        44.02    27.186988   -75279.784   -24655.715 3.6038189e+08 1.1801782e+08            0 
  245700    297.54067   -2365.6243    353.87797   -2011.7463        44.02    27.187237   -77500.221   -24724.513 3.7101456e+08 1.1834839e+08            0 
  245720    290.54043   -2365.6049    345.55228   -2020.0526        44.02    27.187485    -79686.41   -24804.024 3.8148347e+08 1.1873025e+08            0 
  245740    284.08561    -2365.586     337.8753   -2027.7107        44.02    27.187734   -81791.519   -24878.709 3.9156443e+08 1.1908902e+08            0 
  245760    279.42973   -2365.5674    332.33786   -2033.2295        44.02    27.187983   -83783.459   -24936.621 4.011038e+08 1.1936749e+08            0 
  245780    276.92995   -2365.5491    329.36476   -2036.1844        44.02    27.188232   -85655.068   -24974.568 4.100673e+08 1.1955039e+08            0 
  245800    276.45755   -2365.5313    328.80291   -2036.7283        44.02    27.188481    -87411.38   -24993.469 4.1847898e+08 1.1964211e+08            0 
  245820    277.81001   -2365.5137    330.41145   -2035.1023        44.02    27.188729   -89058.425   -24995.662 4.2636772e+08 1.1965385e+08            0 
  245840    280.82129   -2365.4966     333.9929   -2031.5037        44.02    27.188978   -90600.586   -24983.095 4.3375448e+08 1.1959492e+08            0 
  245860     285.2926   -2365.4798    339.31081    -2026.169        44.02    27.189227   -92042.203   -24957.555 4.4066001e+08 1.1947388e+08            0 
  245880    290.85743   -2365.4633    345.92931    -2019.534        44.02    27.189476   -93390.382    -24922.67 4.4711835e+08 1.1930809e+08            0 
  245900    296.90206   -2365.4472    353.11845   -2012.3288        44.02    27.189724   -94655.727   -24884.883 4.5318029e+08 1.1912835e+08            0 
  245920    302.67734   -2365.4315    359.98724   -2005.4442        44.02    27.189973   -95853.454   -24850.727 4.5891861e+08  1.18966e+08            0 
  245940    307.56259    -2365.416    365.79747   -1999.6185        44.02    27.190222   -96990.356   -24825.913 4.6436583e+08 1.1884835e+08            0 
  245960    311.24157   -2365.4008    370.17305   -1995.2278        44.02    27.190471   -98068.856   -24813.251 4.6953353e+08 1.187889e+08            0 
  245980    313.67136   -2365.3859     373.0629    -1992.323        44.02     27.19072   -99083.607   -24813.015 4.7439612e+08 1.1878893e+08            0 
  246000    314.95528   -2365.3712    374.58992   -1990.7813        44.02    27.190968   -100025.78   -24824.131 4.789113e+08 1.1884331e+08            0 
  246020    315.24831   -2365.3568    374.93843   -1990.4184        44.02    27.191217   -100886.06   -24845.064 4.8303447e+08 1.189447e+08            0 
ERROR: Lost atoms: original 400 current 398 (../thermo.cpp:398)
