LAMMPS (17 Nov 2015)
WARNING: OMP_NUM_THREADS environment is not set. (../comm.cpp:90)
  using 1 OpenMP thread(s) per MPI task
##—————INITIALIZATION——————————-
units real
dimension 3 #3D simmulation
boundary f p f
atom_style atomic
newton on
##—————ATOM DEFINITION——————————
read_data data.graphene
  orthogonal box = (-1.42 -1.22972 -2) to (42.6 24.5944 2)
  1 by 1 by 1 MPI processor grid
  reading atoms ...
  400 atoms
##—————SETTINGS———————————
pair_style airebo 3.0
pair_coeff * * CH.airebo C
Reading potential file CH.airebo with DATE: 2011-10-25
timestep 0.0005
fix 1 all npt temp 300 300 0.05 y 0 0 0.5
thermo 20
compute 1 all stress/atom NULL
compute 2 all pe/atom pair bond
# compute 3 all reduce sum c 1[1] c 1[2] c 1[3]

# thermo style custom step temp pe ke etotal lx ly pxx pyy c 3[1] c 3[2] c 3[3]
##—————RUNING-RELAXATION————————————–
run 60000
Neighbor list info ...
  1 neighbor list requests
  update every 1 steps, delay 10 steps, check yes
  max neighbors/atom: 2000, page size: 100000
  master list distance cutoff = 12.2
  ghost atom cutoff = 12.2
  binsize = 6.1 -> bins = 8 5 1
Memory usage per processor = 2.69217 Mbytes
Step Temp E_pair E_mol TotEng Press Volume 
       0            0   -2786.8353            0   -2786.8353   -4103.0646     4547.111 
      20 7.7920004e-07   -2786.9539            0   -2786.9539   -4069.5415    4545.6749 
      40 3.2651379e-06   -2787.2941            0   -2787.2941   -3969.5136    4541.4156 
      60 7.6724598e-06   -2787.8114            0   -2787.8114   -3804.7028    4534.4805 
      80 1.4491588e-05   -2788.4368            0   -2788.4368    -3578.287    4525.1161 
     100    2.426e-05   -2789.0849            0   -2789.0849      -3295.3    4513.6667 
     120 3.7658321e-05   -2789.6651            0    -2789.665    -2963.072    4500.5683 
     140 5.5582638e-05   -2790.0947            0   -2790.0946   -2591.5717    4486.3361 
     160 7.9143952e-05   -2790.3127            0   -2790.3126   -2193.5259    4471.5435 
     180 0.0001097073   -2790.2907            0   -2790.2905   -1784.1876    4456.7933 
     200 0.00014891924   -2790.0386            0   -2790.0385   -1380.7019    4442.6841 
     220 0.00019872992   -2789.6043            0   -2789.6041   -1001.0975    4429.7772 
     240 0.00026141038   -2789.0646            0   -2789.0643   -663.03329     4418.566 
     260 0.00033956696   -2788.5122            0   -2788.5118   -382.47088    4409.4551 
     280 0.00043615654   -2788.0389            0   -2788.0384   -172.46809    4402.7459 
     300 0.00055450794   -2787.7203            0   -2787.7197   -42.230828    4398.6311 
     320 0.00069835542   -2787.6041            0   -2787.6033    3.4903611    4397.1949 
     340 0.00087189083   -2787.7032            0   -2787.7022   -35.366662    4398.4154 
     360 0.0010798406   -2787.9959            0   -2787.9947   -154.30441    4402.1702 
     380  0.001327574   -2788.4314            0   -2788.4298   -344.72612    4408.2428 
     400 0.0016212467   -2788.9393            0   -2788.9374   -594.68222    4416.3312 
     420 0.0019679853    -2789.443            0   -2789.4407   -889.83761    4426.0595 
     440 0.0023761159   -2789.8724            0   -2789.8696   -1214.5702    4436.9941 
     460 0.0028554384   -2790.1745            0   -2790.1711   -1553.0857     4448.663 
     480 0.0034175526   -2790.3207            0   -2790.3167   -1890.4293    4460.5802 
     500 0.0040762382   -2790.3089            0    -2790.304   -2213.2771    4472.2693 
     520 0.0048478968   -2790.1604            0   -2790.1546   -2510.4522    4483.2871 
     540 0.0057520643   -2789.9143            0   -2789.9074   -2773.1439    4493.2428 
     560 0.0068120085   -2789.6192            0   -2789.6111    -2994.877    4501.8113 
     580 0.0080554263   -2789.3254            0   -2789.3158   -3171.3042    4508.7412 
     600 0.0095152636   -2789.0772            0   -2789.0659   -3299.9095    4513.8575 
     620  0.011230681   -2788.9086            0   -2788.8953   -3379.6976    4517.0601 
     640  0.013248194   -2788.8396            0   -2788.8239   -3410.9269    4518.3204 
     660  0.015623021   -2788.8755            0   -2788.8569   -3394.9174    4517.6759 
     680  0.018420681   -2789.0074            0   -2788.9854   -3333.9394    4515.2255 
     700  0.021718876   -2789.2145            0   -2789.1887   -3231.1752    4511.1236 
     720  0.025609723   -2789.4678            0   -2789.4373   -3090.7296    4505.5739 
     740  0.030202391   -2789.7334            0   -2789.6975   -2917.6575    4498.8227 
     760  0.035626222   -2789.9779            0   -2789.9356    -2717.976    4491.1506 
     780  0.042034422   -2790.1725            0   -2790.1225   -2498.6244    4482.8627 
     800   0.04960844   -2790.2964            0   -2790.2374   -2267.3489    4474.2776 
     820  0.058563159   -2790.3398            0   -2790.2702   -2032.4968     4465.715 
     840   0.06915307   -2790.3048            0   -2790.2225   -1802.7216    4457.4837 
     860  0.081679609   -2790.2042            0    -2790.107   -1586.6189    4449.8699 
     880   0.09649991   -2790.0595            0   -2789.9448   -1392.3194    4443.1272 
     900   0.11403723   -2789.8974            0   -2789.7618   -1227.0787    4437.4684 
     920    0.1347934   -2789.7452            0   -2789.5848   -1096.9038    4433.0596 
     940   0.15936369    -2789.627            0   -2789.4374   -1006.2436    4430.0169 
     960   0.18845457   -2789.5605            0   -2789.3363   -957.77078    4428.4045 
     980   0.22290499   -2789.5544            0   -2789.2893   -952.27072    4428.2348 
    1000   0.26371172   -2789.6082            0   -2789.2946   -988.64071    4429.4697 
    1020    0.3120598   -2789.7122            0   -2789.3411   -1063.9983    4432.0233 
    1040   0.36935887   -2789.8499            0   -2789.4106   -1173.8882     4435.766 
    1060   0.43728665   -2790.0008            0   -2789.4807    -1312.571    4440.5294 
    1080   0.51784099   -2790.1436            0   -2789.5277   -1473.3683    4446.1127 
    1100   0.61340208   -2790.2592            0   -2789.5297   -1649.0429    4452.2909 
    1120   0.72680686    -2790.334            0   -2789.4695   -1832.1704    4458.8229 
    1140   0.86143799   -2790.3606            0    -2789.336   -2015.4861    4465.4612 
    1160    1.0213301   -2790.3392            0   -2789.1245   -2192.1761    4471.9613 
    1180    1.2112969   -2790.2769            0   -2788.8362   -2356.1002    4478.0906 
    1200    1.4370827   -2790.1857            0   -2788.4765   -2501.9398    4483.6367 
    1220    1.7055434   -2790.0813            0   -2788.0528   -2625.2784    4488.4138 
    1240    2.0248623   -2789.9802            0    -2787.572   -2722.6256    4492.2685 
    1260    2.4048071   -2789.8976            0   -2787.0375    -2791.402    4495.0833 
    1280    2.8570358   -2789.8454            0   -2786.4475   -2829.9018    4496.7792 
    1300    3.3954594   -2789.8311            0   -2785.7928     -2837.25     4497.317 
    1320    4.0366729   -2789.8567            0   -2785.0557   -2813.3625    4496.6972 
    1340    4.8004637   -2789.9186            0   -2784.2092   -2758.9164    4494.9599 
    1360    5.7104115   -2790.0087            0   -2783.2171   -2675.3295    4492.1823 
    1380    6.7945921   -2790.1151            0    -2782.034   -2564.7429     4488.477 
    1400    8.0863993    -2790.224            0   -2780.6065   -2429.9982    4483.9878 
    1420    9.6254983   -2790.3216            0   -2778.8736   -2274.5957     4478.885 
    1440    11.458924   -2790.3957            0   -2776.7672   -2102.6217    4473.3602 
    1460    13.642329   -2790.4381            0   -2774.2127   -1918.6344    4467.6186 
    1480    16.241391   -2790.4451            0   -2771.1285   -1727.5001    4461.8724 
    1500    19.333357   -2790.4183            0   -2767.4243   -1534.1819    4456.3322 
    1520    23.008704   -2790.3645            0   -2762.9993    -1343.487    4451.1993 
    1540    27.372862   -2790.2946            0   -2757.7388    -1159.784    4446.6581 
    1560     32.54788   -2790.2216            0    -2751.511    -986.7127    4442.8692 
    1580    38.673891   -2790.1592            0   -2744.1627   -826.90753     4439.964 
    1600    45.910104   -2790.1195            0   -2735.5166   -681.75991      4438.04 
    1620    54.434968    -2790.111            0   -2725.3691   -551.24176    4437.1576 
    1640    64.444942   -2790.1375            0   -2713.4904   -433.80973    4437.3386 
    1660    76.151153   -2790.1979            0    -2699.628   -326.41064    4438.5659 
    1680    89.772912   -2790.2858            0    -2683.515   -224.60082    4440.7838 
    1700    105.52681   -2790.3914            0   -2664.8838   -122.79103    4443.9008 
    1720    123.60981   -2790.5024            0   -2643.4879   -14.628432    4447.7929 
    1740    144.17444    -2790.606            0   -2619.1331    106.48252    4452.3083 
    1760    167.29437   -2790.6914            0    -2591.721    246.71249     4457.273 
    1780    192.91865   -2790.7506            0   -2561.3041    410.99788    4462.4981 
    1800     220.8143     -2790.78            0    -2528.156    602.10295    4467.7868 
    1820    250.49874   -2790.7807            0   -2492.8518    819.58903    4472.9418 
    1840    281.16777   -2790.7581            0   -2456.3531    1058.7696    4477.7735 
    1860    311.63069   -2790.7208            0    -2420.085     1309.793    4482.1059 
    1880    340.27427   -2790.6799            0    -2385.977    1557.1082    4485.7836 
    1900    365.09133   -2790.6466            0   -2356.4277    1779.7354    4488.6762 
    1920    383.82886   -2790.6311            0   -2334.1268     1952.993    4490.6824 
    1940    394.32769   -2790.6411            0   -2321.6502    2052.5385    4491.7326 
    1960    395.10338   -2790.6809            0   -2320.7674    2061.3316    4491.7907 
    1980    386.06751   -2790.7506            0   -2331.5839    1978.3145     4490.855 
    2000    368.96364   -2790.8464            0    -2352.022    1823.6956    4488.9577 
    2020    346.95853   -2790.9608            0    -2378.308    1634.0751    4486.1645 
    2040    323.47236   -2791.0838            0   -2406.3641    1448.3902    4482.5728 
    2060    301.14479   -2791.2042            0   -2433.0397    1295.4747    4478.3089 
    2080    281.54601   -2791.3111            0   -2456.4563    1190.6009    4473.5244 
    2100    265.42289   -2791.3952            0   -2475.7163    1138.5018    4468.3906 
    2120     253.0556   -2791.4505            0   -2490.4806    1137.7663     4463.093 
    2140    244.52201    -2791.475            0   -2500.6544    1184.1653    4457.8238 
    2160    239.84478   -2791.4709            0   -2506.2132    1272.6064    4452.7748 
    2180    239.04649    -2791.445            0   -2507.1367     1398.009    4448.1298 
    2200    242.13387   -2791.4069            0   -2503.4266    1555.3426    4444.0577 
    2220    249.02709   -2791.3683            0   -2495.1896    1738.9995    4440.7056 
    2240     259.4611   -2791.3407            0   -2482.7524    1941.8144    4438.1934 
    2260    272.90353    -2791.334            0   -2466.7581    2154.2593    4436.6099 
    2280    288.52782   -2791.3548            0   -2448.1962    2364.2844    4436.0088 
    2300    305.24449   -2791.4054            0    -2428.365    2557.8224    4436.4073 
    2320    321.76459   -2791.4834            0   -2408.7949    2719.6376    4437.7855 
    2340     336.6796   -2791.5821            0   -2391.1545    2834.3087    4440.0867 
    2360    348.56824   -2791.6918            0   -2377.1245    2887.4731    4443.2196 
    2380    356.15392   -2791.8007            0   -2368.2115    2867.6154    4447.0617 
    2400    358.52183   -2791.8975            0    -2365.492    2768.5107    4451.4634 
    2420    355.35924   -2791.9726            0   -2369.3285    2591.8873    4456.2539 
    2440    347.11899   -2792.0195            0   -2379.1759    2349.0998    4461.2478 
    2460    334.97792   -2792.0362            0   -2393.6324    2060.2898    4466.2522 
    2480    320.54913    -2792.025            0   -2410.7821    1750.5823    4471.0746 
    2500    305.47865   -2791.9924            0   -2428.6734    1444.9549    4475.5304 
    2520     291.1345   -2791.9477            0   -2445.6888    1164.3208    4479.4497 
    2540    278.49235   -2791.9019            0    -2460.679    924.07602     4482.684 
    2560    268.17632   -2791.8662            0   -2472.9125    734.57469    4485.1106 
    2580    260.56109   -2791.8498            0   -2481.9533    602.37083    4486.6375 
    2600    255.86732   -2791.8596            0   -2487.5455    531.38648    4487.2054 
    2620    254.22112   -2791.8983            0   -2489.5422    523.64461    4486.7901 
    2640    255.67116    -2791.965            0   -2487.8843    579.48365    4485.4028 
    2660    260.16788   -2792.0546            0   -2482.6257     697.3057    4483.0902 
    2680    267.51815   -2792.1587            0   -2473.9878    873.02127    4479.9325 
    2700     277.3378   -2792.2672            0   -2462.4174    1099.4647    4476.0414 
    2720    289.02576    -2792.369            0   -2448.6182    1366.0797    4471.5566 
    2740    301.77297   -2792.4541            0   -2433.5425     1659.046    4466.6404 
    2760    314.60324   -2792.5149            0   -2418.3437    1961.8329    4461.4726 
    2780    326.43839   -2792.5473            0      -2404.3    2256.0998    4456.2435 
    2800    336.18608   -2792.5514            0   -2392.7107    2522.9344    4451.1465 
    2820    342.85581   -2792.5316            0   -2384.7584     2744.496    4446.3704 
    2840    345.70338   -2792.4961            0   -2381.3361    2906.0589     4442.092 
    2860    344.38386   -2792.4551            0   -2382.8645    2998.1923    4438.4693 
    2880    339.06328   -2792.4199            0   -2389.1573    3018.4319    4435.6352 
    2900    330.42358   -2792.4007            0   -2399.4136    2971.6125    4433.6923 
    2920    319.52725   -2792.4051            0   -2412.3775    2868.4086    4432.7098 
    2940    307.58476    -2792.437            0   -2426.6131    2722.5971    4432.7207 
    2960    295.72725   -2792.4958            0   -2440.7746    2548.2965    4433.7206 
    2980    284.86895   -2792.5766            0   -2453.7697    2358.2332    4435.6685 
    3000    275.67446   -2792.6711            0   -2464.7996    2163.2308    4438.4877 
    3020    268.59326   -2792.7685            0    -2473.319    1972.4733    4442.0691 
    3040    263.91496   -2792.8576            0   -2478.9721    1793.9824    4446.2747 
    3060    261.81427   -2792.9281            0   -2481.5411    1634.9365     4450.943 
    3080    262.37142   -2792.9728            0   -2480.9232    1501.6814    4455.8952 
    3100    265.56613   -2792.9881            0   -2477.1388    1399.4205     4460.942 
    3120    271.25184   -2792.9747            0   -2470.3632    1331.6866    4465.8907 
    3140    279.12424   -2792.9376            0   -2460.9631     1299.777    4470.5529 
    3160    288.70098   -2792.8852            0   -2449.5207    1302.3652    4474.7517 
    3180    299.32502   -2792.8281            0   -2436.8279    1335.4352    4478.3275 
    3200    310.19427   -2792.7775            0   -2423.8501    1392.5646    4481.1444 
    3220    320.41391   -2792.7439            0   -2411.6618    1465.5033    4483.0938 
    3240    329.06866   -2792.7352            0   -2401.3596     1545.005    4484.0987 
    3260    335.31507   -2792.7562            0   -2393.9515     1621.909    4484.1156 
    3280    338.49235   -2792.8073            0   -2390.2237    1688.4511    4483.1359 
    3300    338.23853    -2792.885            0   -2390.6033    1739.6482    4481.1864 
    3320    334.58095   -2792.9819            0   -2395.0503    1774.3882    4478.3286 
    3340    327.95875   -2793.0878            0   -2403.0323    1795.7165    4474.6574 
    3360    319.14904   -2793.1911            0   -2413.6133    1809.9798    4470.2979 
    3380     309.1122   -2793.2802            0   -2425.6397    1825.0109    4465.4023 
    3400    298.81625   -2793.3453            0   -2437.9502    1848.0789    4460.1443 
    3420    289.10496     -2793.38            0    -2449.535    1884.3937    4454.7138 
    3440    280.63864   -2793.3822            0   -2459.6065    1936.5222    4449.3091 
    3460    273.89493   -2793.3544            0   -2467.5993    2004.5749    4444.1304 
    3480    269.19923   -2793.3037            0   -2473.1334    2086.7901    4439.3708 
    3500    266.75755    -2793.241            0   -2475.9747    2180.1776    4435.2098 
    3520    266.67576   -2793.1787            0   -2476.0097    2281.0134    4431.8054 
    3540    268.95999   -2793.1298            0   -2473.2441    2385.0991    4429.2884 
    3560    273.50083    -2793.105            0   -2467.8187    2487.7979    4427.7573 
    3580    280.05078   -2793.1115            0    -2460.035    2583.9463    4427.2744 
    3600    288.20797   -2793.1514            0   -2450.3732    2667.7862    4427.8633 
    3620    297.41699   -2793.2217            0   -2439.4908    2733.0431    4429.5081 
    3640    306.99156   -2793.3144            0   -2428.1961    2773.1998    4432.1529 
    3660     316.1577   -2793.4179            0   -2417.3979    2781.9497    4435.7042 
    3680    324.11456   -2793.5183            0   -2408.0348    2753.7942    4440.0333 
    3700    330.11147   -2793.6021            0   -2400.9863    2684.7759    4444.9807 
    3720    333.53886    -2793.658            0   -2396.9658    2573.3255    4450.3619 
    3740    334.02366   -2793.6787            0   -2396.4099     2421.132    4455.9742 
    3760     331.5078    -2793.662            0   -2399.3854    2233.7926    4461.6041 
    3780    326.27928   -2793.6113            0   -2405.5532    2020.8983    4467.0362 
    3800    318.93149    -2793.535            0    -2414.216    1795.2855    4472.0607 
    3820    310.25402   -2793.4453            0   -2424.4468    1571.5182     4476.482 
    3840    301.09235   -2793.3567            0   -2435.2545    1364.0623    4480.1255 
    3860    292.22661   -2793.2834            0   -2445.7257    1185.7551     4482.844 
    3880    284.30112    -2793.238            0   -2455.1064    1046.9374    4484.5228 
    3900    277.80553   -2793.2291            0    -2462.823      955.233    4485.0833 
    3920    273.08812   -2793.2606            0   -2468.4651    915.72183    4484.4861 
    3940    270.37882   -2793.3307            0   -2471.7574    931.22025    4482.7324 
    3960    269.80606   -2793.4318            0   -2472.5398    1002.4702     4479.865 
    3980    271.40001    -2793.552            0   -2470.7643    1128.1481    4475.9675 
    4000    275.08262    -2793.676            0   -2466.5083    1304.7037    4471.1631 
    4020    280.65076   -2793.7871            0    -2459.997    1526.1172    4465.6113 
    4040    287.76267   -2793.8701            0   -2451.6215     1783.718    4459.5036 
    4060    295.93748   -2793.9131            0   -2441.9419    2066.2014    4453.0572 
    4080    304.57301   -2793.9096            0   -2431.6678     2359.933    4446.5077 
    4100    312.98209     -2793.86            0   -2421.6169    2649.5576    4440.1001 
    4120    320.44483   -2793.7719            0    -2412.653    2918.8903     4434.079 
    4140    326.27494    -2793.659            0   -2405.6061    3152.0589    4428.6789 
    4160    329.89748   -2793.5395            0   -2401.1782    3334.8523    4424.1147 
    4180    330.93108   -2793.4334            0   -2399.8427    3456.1483    4420.5727 
    4200    329.25873    -2793.359            0   -2401.7574    3509.1924    4418.2037 
    4220    325.06383   -2793.3304            0    -2406.718    3492.3927    4417.1166 
    4240    318.80986   -2793.3548            0   -2414.1804      3409.33     4417.374 
    4260    311.16084   -2793.4308            0   -2423.3538    3267.9224    4418.9898 
    4280    302.86648   -2793.5487            0   -2433.3365    3079.0295    4421.9272 
    4300    294.65158   -2793.6916            0   -2443.2498    2854.9913    4426.0996 
    4320    287.14105   -2793.8377            0   -2452.3284    2608.5016    4431.3715 
    4340    280.82871   -2793.9636            0   -2459.9618    2351.9383    4437.5631 
    4360    276.07839    -2794.048            0   -2465.6961    2097.0303     4444.455 
    4380    273.13911   -2794.0754            0   -2469.2192    1854.6643    4451.7962 
    4400    272.15913   -2794.0379            0   -2470.3473     1634.676    4459.3133 
    4420    273.19063   -2793.9376            0   -2469.0202    1445.5597    4466.7207 
    4440    276.18322   -2793.7857            0    -2465.309    1294.0975    4473.7324 
    4460    280.97095   -2793.6013            0   -2459.4304    1184.9827    4480.0726 
    4480    287.26059    -2793.409            0   -2451.7576    1120.5386    4485.4868 
    4500    294.63019   -2793.2352            0   -2442.8188    1100.6274    4489.7504 
    4520    302.54337   -2793.1046            0   -2433.2767    1122.7949    4492.6768 
    4540    310.38019   -2793.0368            0   -2423.8882    1182.6375    4494.1231 
    4560    317.48282   -2793.0435            0   -2415.4475    1274.3405    4493.9956 
    4580    323.21358   -2793.1265            0   -2408.7146    1391.3436    4492.2529 
    4600    327.02291   -2793.2768            0   -2404.3343    1527.0904    4488.9095 
    4620    328.52196   -2793.4753            0   -2402.7499    1675.8003     4484.037 
    4640     327.5478   -2793.6947            0   -2404.1279    1833.1295    4477.7659 
    4660    324.20265   -2793.9022            0    -2408.314    1996.5169    4470.2841 
    4680    318.84804   -2794.0645            0   -2414.8447    2165.0123    4461.8347 
    4700    312.04711   -2794.1521            0    -2423.021    2338.5355    4452.7095 
    4720    304.46979    -2794.145            0   -2432.0259    2516.7714    4443.2399 
    4740    296.79214   -2794.0361            0   -2441.0484    2698.1167    4433.7848 
    4760    289.61958   -2793.8345            0   -2449.3774     2879.051    4424.7152 
    4780    283.44695   -2793.5646            0   -2456.4489    3054.1112     4416.398 
    4800     278.6501   -2793.2637            0   -2461.8531    3216.3731    4409.1791 
    4820    275.49432   -2792.9764            0   -2465.3191    3358.2259    4403.3685 
    4840    274.14579    -2792.748            0   -2466.6946     3472.207     4399.227 
    4860    274.67685   -2792.6163            0   -2465.9312     3551.716    4396.9554 
    4880    277.06219    -2792.605            0    -2463.083    3591.5155    4396.6872 
    4900    281.16857   -2792.7193            0   -2458.3134    3587.9995    4398.4821 
    4920    286.74465   -2792.9435            0   -2451.9057    3539.2806    4402.3222 
    4940    293.41865   -2793.2426            0   -2444.2671    3445.1692    4408.1099 
    4960    300.70969   -2793.5678            0   -2435.9208    3307.1052    4415.6677 
    4980    308.05419   -2793.8633            0   -2427.4811    3128.0668    4424.7409 
    5000    314.84613   -2794.0761            0   -2419.6159    2912.4572    4435.0044 
    5020    320.48848   -2794.1643            0   -2412.9936    2665.9911    4446.0736 
    5040    324.45353   -2794.1052            0   -2408.2186    2395.6209    4457.5206 
    5060    326.34781   -2793.8986            0    -2405.759    2109.5407    4468.8931 
    5080    325.97238   -2793.5672            0   -2405.8742    1817.2525    4479.7365 
    5100    323.36368   -2793.1531            0   -2408.5627    1529.5759     4489.615 
    5120    318.79818   -2792.7112            0   -2413.5508     1258.437    4498.1309 
    5140    312.75186    -2792.301            0   -2420.3317    1016.3208      4504.94 
    5160    305.82259    -2791.978            0     -2428.25    815.44077    4509.7628 
    5180    298.63962   -2791.7866            0   -2436.6016    666.84465    4512.3921 
    5200    291.78731   -2791.7539            0   -2444.7187    579.70582     4512.698 
    5220    285.75889   -2791.8861            0   -2452.0207    560.91459    4510.6307 
    5240       280.94    -2792.167            0   -2458.0329    614.91435    4506.2239 
    5260     277.6109   -2792.5591            0   -2462.3844    743.62874    4499.5965 
    5280    275.95484   -2793.0075            0   -2464.8025    946.33245    4490.9545 
    5300    276.06321   -2793.4464            0   -2465.1125    1219.3928    4480.5898 
    5320    277.93339   -2793.8078            0   -2463.2496    1555.9034    4468.8754 
    5340     281.4607   -2794.0322            0   -2459.2789    1945.3191    4456.2544 
    5360    286.42934    -2794.079            0   -2453.4162    2373.2646    4443.2232 
    5380    292.50958   -2793.9345            0   -2446.0402    2821.6987    4430.3075 
    5400    299.26662    -2793.616            0   -2437.6853    3269.5526    4418.0358 
    5420    306.18338   -2793.1707            0   -2429.0136    3693.8722    4406.9103 
    5440    312.69628   -2792.6681            0   -2420.7649    4071.3546    4397.3818 
    5460    318.24154   -2792.1884            0     -2413.69    4380.1284    4389.8288 
    5480    322.30968   -2791.8087            0   -2408.4719    4601.6097    4384.5426 
    5500    324.50468   -2791.5897            0   -2405.6422    4722.0957    4381.7189 
    5520    324.60045   -2791.5651            0   -2405.5038    4734.2798    4381.4533 
    5540    322.58249   -2791.7365            0   -2408.0752    4638.0727    4383.7401 
    5560    318.65984   -2792.0729            0    -2413.077     4440.713    4388.4733 
    5580    313.23727   -2792.5167            0   -2419.9701    4156.0719    4395.4497 
    5600     306.8514   -2792.9939            0   -2428.0422    3803.0347    4404.3741 
    5620    300.08921   -2793.4269            0   -2436.5178    3403.5666      4414.87 
    5640    293.51366   -2793.7479            0   -2444.6594    2980.6767    4426.4932 
    5660    287.61358   -2793.9101            0   -2451.8388    2556.6284    4438.7532 
    5680    282.78106   -2793.8942            0   -2457.5705    2151.6144    4451.1372 
    5700    279.30851   -2793.7104            0   -2461.5168    1782.8972    4463.1375 
    5720    277.39418   -2793.3943            0   -2463.4775    1464.3577    4474.2775 
    5740    277.14671   -2792.9993            0   -2463.3767    1206.3409    4484.1345 
    5760    278.58402   -2792.5868            0   -2461.2548    1015.6999    4492.3558 
    5780    281.62664   -2792.2169            0   -2457.2661    895.94836    4498.6699 
    5800    286.08954   -2791.9394            0   -2451.6808      847.474     4502.891 
    5820    291.67883   -2791.7887            0   -2444.8824    867.79955    4504.9192 
    5840    297.99871   -2791.7797            0    -2437.357    951.89138    4504.7384 
    5860    304.57131   -2791.9079            0   -2429.6681    1092.5165     4502.413 
    5880    310.86873   -2792.1504            0   -2422.4208    1280.6372    4498.0826 
    5900    316.35502   -2792.4701            0   -2416.2154    1505.8431     4491.957 
    5920     320.5358   -2792.8208            0   -2411.5937    1756.8389    4484.3089 
    5940    323.01247    -2793.154            0   -2408.9813    2022.0122    4475.4647 
    5960     323.5354   -2793.4256            0    -2408.631    2290.0768    4465.7922 
    5980    322.04607   -2793.6024            0   -2410.5791    2550.7219    4455.6853 
    6000    318.69496   -2793.6667            0    -2414.629    2795.1354    4445.5463 
    6020     313.8244   -2793.6183            0   -2420.3733    3016.2664    4435.7676 
    6040    307.91652   -2793.4742            0   -2427.2558    3208.7782    4426.7132 
    6060       301.52   -2793.2648            0   -2434.6541    3368.8024     4418.703 
    6080    295.17792   -2793.0284            0   -2441.9606     3493.682    4412.0009 
    6100    289.37454   -2792.8044            0   -2448.6388    3581.8613    4406.8059 
    6120    284.50748   -2792.6272            0   -2454.2501    3632.9499    4403.2486 
    6140    280.88024   -2792.5207            0   -2458.4577    3647.8722    4401.3897 
    6160    278.70507   -2792.4961            0   -2461.0201     3628.971    4401.2226 
    6180    278.10697   -2792.5504            0   -2461.7858    3579.9572    4402.6768 
    6200    279.12345   -2792.6687            0   -2460.6951    3505.6576    4405.6243 
    6220    281.69907   -2792.8273            0   -2457.7904    3411.5792    4409.8862 
    6240    285.67793   -2792.9982            0   -2453.2291    3303.3639    4415.2414 
    6260    290.79978   -2793.1536            0   -2447.2929    3186.2418     4421.437 
    6280     296.7051   -2793.2708            0   -2440.3866    3064.5947    4428.1991 
    6300     302.9522   -2793.3342            0   -2433.0201    2941.7007    4435.2444 
    6320     309.0459   -2793.3378            0   -2425.7762      2819.69    4442.2925 
    6340    314.47587   -2793.2846            0   -2419.2649    2699.7061    4449.0767 
    6360    318.76201   -2793.1853            0   -2414.0679    2582.2447    4455.3543 
    6380    321.50431    -2793.056            0    -2410.677    2467.6448    4460.9139 
    6400    322.43287   -2792.9153            0    -2409.432    2356.6552    4465.5815 
    6420    321.44985   -2792.7818            0   -2410.4676     2250.961    4469.2241 
    6440     318.6519    -2792.671            0   -2413.6846    2153.5141    4471.7517 
    6460    314.32233   -2792.5944            0   -2418.7573    2068.5168    4473.1167 
    6480    308.89001   -2792.5576            0   -2425.1813    2001.0093    4473.3137 
    6500    302.86479   -2792.5605            0   -2432.3503    1956.1694    4472.3769 
    6520    296.76837   -2792.5977            0   -2439.6383    1938.5458    4470.3778 
    6540    291.07911   -2792.6595            0   -2446.4666    1951.4482    4467.4213 
    6560    286.19931   -2792.7335            0   -2452.3443    1996.6031    4463.6415 
    6580    282.44318   -2792.8062            0   -2456.8843    2074.0594    4459.1973 
    6600    280.03671   -2792.8651            0   -2459.8054    2182.2514    4454.2662 
    6620     279.1208   -2792.9002            0   -2460.9298    2318.1224     4449.038 
    6640    279.75147   -2792.9052            0   -2460.1847     2477.244    4443.7086 
    6660     281.8955   -2792.8785            0    -2457.608    2653.9104    4438.4721 
    6680    285.42358   -2792.8228            0   -2453.3562    2841.2316    4433.5149 
    6700    290.10601   -2792.7449            0   -2447.7092    3031.2823    4429.0081 
    6720    295.61625   -2792.6542            0    -2441.065     3215.357    4425.1028 
    6740    301.54547   -2792.5615            0   -2433.9205    3384.3589    4421.9243 
    6760    307.42841   -2792.4772            0   -2426.8394    3529.3105    4419.5689 
    6780    312.77847   -2792.4097            0   -2420.4088    3641.9463    4418.1009 
    6800    317.12957   -2792.3643            0   -2415.1884    3715.3425    4417.5513 
    6820    320.08236   -2792.3425            0   -2411.6547    3744.5451    4417.9176 
    6840    321.35134    -2792.342            0    -2410.145    3727.1444    4419.1639 
    6860    320.80618   -2792.3574            0   -2410.8087    3663.7132    4421.2233 
    6880    318.49742   -2792.3806            0   -2413.5779    3557.9905    4424.0006 
    6900    314.65599   -2792.4028            0   -2418.1688    3416.6921    4427.3758 
    6920    309.66165   -2792.4154            0   -2424.1214    3248.9037    4431.2092 
    6940    303.98658   -2792.4115            0   -2430.8671    3065.1533    4435.3466 
    6960    298.13005   -2792.3869            0    -2437.808     2876.381    4439.6252 
    6980    292.56223   -2792.3406            0   -2444.3837    2693.0428      4443.88 
    7000    287.68783   -2792.2746            0   -2450.1151    2524.4915    4447.9499 
    7020    283.82981   -2792.1939            0   -2454.6229    2378.6419    4451.6836 
    7040     281.2265   -2792.1053            0   -2457.6305    2261.8386    4454.9446 
    7060    280.03348   -2792.0165            0   -2458.9606    2178.8161    4457.6164 
    7080    280.32399   -2791.9351            0   -2458.5337    2132.6678    4459.6057 
    7100    282.08529   -2791.8673            0   -2456.3711    2124.7852    4460.8451 
    7120    285.21226   -2791.8173            0    -2452.602    2154.7759    4461.2954 
    7140    289.50285   -2791.7865            0   -2447.4683     2220.408    4460.9462 
    7160    294.66009   -2791.7739            0   -2441.3219    2317.6385    4459.8158 
    7180    300.30466   -2791.7755            0   -2434.6102    2440.7694    4457.9508 
    7200    305.99813   -2791.7856            0   -2427.8488    2582.7404    4455.4238 
    7220    311.27535   -2791.7972            0    -2421.584    2735.5423    4452.3312 
    7240    315.68322   -2791.8033            0   -2416.3476    2890.7268    4448.7897 
    7260    318.82374   -2791.7976            0   -2412.6067    3039.9953    4444.9318 
    7280    320.39837   -2791.7755            0   -2410.7119    3175.8348    4440.9015 
    7300    320.24861    -2791.735            0   -2410.8495    3292.1414    4436.8485 
    7320    318.38414   -2791.6766            0   -2413.0086    3384.7235    4432.9226 
    7340    314.98857   -2791.6035            0    -2416.974    3451.5547    4429.2681 
    7360    310.39639   -2791.5211            0   -2422.3533    3492.6832    4426.0185 
    7380     305.0441   -2791.4358            0   -2428.6337     3509.823    4423.2914 
    7400    299.40896   -2791.3546            0   -2435.2546    3505.7732    4421.1838 
    7420    293.95243   -2791.2834            0   -2441.6731    3483.8682    4419.7693 
    7440     289.0806   -2791.2268            0   -2447.4107    3447.5985    4419.0951 
    7460    285.12416   -2791.1866            0   -2452.0761    3400.4308    4419.1806 
    7480    282.33277   -2791.1621            0   -2455.3716    3345.7591    4420.0164 
    7500    280.87578   -2791.1503            0   -2457.0926    3286.8878    4421.5655 
    7520    280.84269   -2791.1457            0   -2457.1273     3226.968    4423.7641 
    7540    282.24009   -2791.1419            0   -2455.4616    3168.8527    4426.5242 
    7560    284.98577   -2791.1323            0   -2452.1864    3114.8849     4429.737 
    7580    288.90366    -2791.111            0   -2447.5054    3066.6773    4433.2772 
    7600    293.72466   -2791.0738            0   -2441.7344    3024.9529    4437.0075 
    7620    299.09705    -2791.019            0     -2435.29    2989.5053    4440.7839 
    7640    304.60758   -2790.9472            0   -2428.6643    2959.2973    4444.4614 
    7660    309.81136   -2790.8616            0   -2422.3895    2932.6826    4447.8993 
    7680    314.26805   -2790.7672            0   -2416.9947    2907.7241    4450.9666 
    7700    317.58195   -2790.6704            0   -2412.9565    2882.5825    4453.5463 
    7720    319.44381   -2790.5778            0   -2410.6494    2855.9466    4455.5401 
    7740    319.67024   -2790.4952            0   -2410.2976    2827.4544    4456.8715 
    7760    318.23356   -2790.4272            0   -2411.9383     2798.018    4457.4882 
    7780    315.27279   -2790.3761            0   -2415.4086    2769.9351    4457.3643 
    7800    311.07836    -2790.342            0   -2420.3631    2746.6957    4456.5005 
    7820    306.05096   -2790.3224            0   -2426.3228    2732.4857     4454.925 
    7840    300.64475   -2790.3128            0    -2432.743    2731.5118    4452.6922 
    7860    295.31114   -2790.3072            0   -2439.0809    2747.3422    4449.8808 
    7880     290.4565    -2790.299            0   -2444.8465    2782.4283    4446.5918 
    7900    286.41842    -2790.282            0   -2449.6322    2837.8682    4442.9446 
    7920    283.45726    -2790.251            0   -2453.1231    2913.3736     4439.073 
    7940    281.75549   -2790.2033            0   -2455.0993    3007.3558    4435.1203 
    7960    281.41798    -2790.138            0   -2455.4355    3117.0506    4431.2337 
    7980     282.4696   -2790.0575            0   -2454.1042    3238.6301    4427.5589 
    8000    284.84966   -2789.9658            0   -2451.1818     3367.299    4424.2345 
    8020     288.4066   -2789.8692            0   -2446.8547    3497.4036    4421.3863 
    8040    292.89755   -2789.7741            0   -2441.4184    3622.6045    4419.1226 
    8060    297.99698    -2789.687            0   -2435.2664    3736.1504    4417.5299 
    8080    303.31554   -2789.6129            0   -2428.8666    3831.2589    4416.6698 
    8100     308.4279   -2789.5546            0    -2422.728    3901.5739     4416.576 
    8120    312.90657   -2789.5124            0   -2417.3591    3941.6557    4417.2534 
    8140    316.35955   -2789.4837            0   -2413.2236    3947.4679    4418.6776 
    8160    318.46973   -2789.4637            0   -2410.6939    3916.8314    4420.7956 
    8180    319.03285   -2789.4461            0   -2410.0065     3849.808    4423.5276 
    8200    317.98837   -2789.4239            0   -2411.2265    3748.9467    4426.7698 
    8220    315.43465   -2789.3906            0   -2414.2306    3619.2991    4430.3983 
    8240    311.62049   -2789.3416            0   -2418.7179    3468.1206    4434.2739 
    8260    306.91128   -2789.2741            0   -2424.2512     3304.251     4438.247 
    8280    301.73713   -2789.1884            0   -2430.3193    3137.2846    4442.1639 
    8300    296.53772   -2789.0873            0   -2436.4022    2976.7233    4445.8724 
    8320    291.71792   -2788.9761            0   -2442.0234    2831.2913    4449.2278 
    8340    287.62082   -2788.8616            0   -2446.7818    2708.4971    4452.0983 
    8360    284.51635   -2788.7511            0   -2450.3635    2614.4185    4454.3698 
    8380    282.59916   -2788.6515            0   -2452.5441    2553.6239    4455.9502 
    8400    281.98863    -2788.568            0   -2453.1867    2529.1398    4456.7728 
    8420    282.72672   -2788.5038            0   -2452.2447    2542.4039    4456.7984 
    8440    284.77282   -2788.4592            0   -2449.7666     2593.187    4456.0172 
    8460     287.9981   -2788.4318            0   -2445.9032    2679.5122    4454.4488 
    8480      292.184   -2788.4164            0   -2440.9093    2797.6261    4452.1425 
    8500    297.02907    -2788.406            0   -2435.1365    2942.0776    4449.1757 
    8520    302.16603   -2788.3928            0   -2429.0137    3105.9309    4445.6514 
    8540    307.18766    -2788.369            0   -2423.0174     3281.108     4441.695 
    8560    311.67869   -2788.3282            0   -2417.6352    3458.8325    4437.4502 
    8580    315.25126   -2788.2663            0   -2413.3244    3630.1537    4433.0736 
    8600    317.58207   -2788.1823            0   -2410.4682    3786.5346    4428.7286 
    8620    318.44889   -2788.0784            0   -2409.3333    3920.4722    4424.5799 
    8640    317.76199   -2787.9597            0   -2410.0317    4026.0897    4420.7863 
    8660    315.58268    -2787.834            0   -2412.4978    4099.5925    4417.4948 
    8680    312.12105   -2787.7098            0   -2416.4907    4139.4729    4414.8347 
    8700    307.70883   -2787.5958            0   -2421.6244    4146.3946    4412.9125 
    8720    302.75256   -2787.4991            0   -2427.4223    4122.8019    4411.8076 
    8740    297.67985    -2787.424            0   -2433.3805    4072.3975    4411.5693 
    8760     292.8933   -2787.3715            0   -2439.0209    3999.6602    4412.2146 
    8780    288.74049   -2787.3391            0   -2443.9275    3909.5011    4413.7272 
    8800    285.50001   -2787.3205            0    -2447.763    3807.0576    4416.0576 
    8820    283.37776   -2787.3074            0    -2450.274    3697.5598    4419.1251 
    8840    282.50674   -2787.2901            0   -2451.2927    3586.1892    4422.8196 
    8860    282.94521   -2787.2593            0   -2450.7404    3477.8801    4427.0058 
    8880    284.67175   -2787.2073            0   -2448.6349    3377.0586    4431.5281 
    8900    287.57933   -2787.1296            0   -2445.0991    3287.3587     4436.216 
    8920    291.47263   -2787.0251            0   -2440.3641    3211.3831    4440.8908 
    8940     296.0732   -2786.8968            0   -2434.7642    3150.5778    4445.3724 
    8960    301.03474   -2786.7513            0   -2428.7177    3105.2533     4449.486 
    8980    305.96732   -2786.5977            0   -2422.6975    3074.7455    4453.0686 
    9000    310.46771   -2786.4464            0   -2417.1938    3057.6795    4455.9753 
    9020    314.15288   -2786.3079            0   -2412.6723     3052.297    4458.0846 
    9040    316.69495   -2786.1908            0   -2409.5318    3056.8232    4459.3023 
    9060    317.85605    -2786.101            0   -2408.0611     3069.846    4459.5654 
    9080    317.51963   -2786.0407            0   -2408.4009     3090.664    4458.8447 
    9100    315.71184   -2786.0077            0    -2410.518    3119.5193    4457.1458 
    9120    312.60471   -2785.9959            0   -2414.2016    3157.6161    4454.5106 
    9140    308.49593   -2785.9958            0   -2419.0883     3206.861    4451.0158 
    9160    303.76734   -2785.9957            0    -2424.712    3269.3533    4446.7723 
    9180    298.83323   -2785.9833            0    -2430.568    3346.7673    4441.9219 
    9200    294.09291   -2785.9475            0   -2436.1701     3439.809     4436.633 
    9220     289.8977   -2785.8804            0   -2441.0926    3547.8817    4431.0958 
    9240    286.53412   -2785.7782            0   -2444.9908    3668.9961    4425.5148 
    9260    284.21864   -2785.6425            0    -2447.609    3799.8705    4420.1019 
    9280    283.09703   -2785.4799            0   -2448.7804    3936.1397    4415.0676 
    9300     283.2429   -2785.3019            0   -2448.4289    4072.6046    4410.6128 
    9320    284.65319   -2785.1227            0   -2446.5723    4203.4797    4406.9208 
    9340    287.24193   -2784.9571            0   -2443.3278    4322.5493    4404.1494 
    9360    290.83647   -2784.8186            0   -2438.9142    4423.4974    4402.4251 
    9380    295.18096   -2784.7166            0   -2433.6451    4500.1856    4401.8373 
    9400    299.94977   -2784.6549            0   -2427.9117    4547.0201    4402.4343 
    9420    304.77028   -2784.6307            0   -2422.1543    4559.3653    4404.2208 
    9440    309.25183   -2784.6349            0   -2416.8283     4533.947    4407.1564 
    9460    313.01756   -2784.6528            0   -2412.3675    4469.1996     4411.156 
    9480    315.73746   -2784.6669            0   -2409.1467    4365.5668    4416.0914 
    9500    317.16133   -2784.6588            0   -2407.4451    4225.5804    4421.7946 
    9520    317.14951   -2784.6128            0   -2407.4132    4054.0212    4428.0634 
    9540    315.69603   -2784.5181            0   -2409.0472    3857.8521    4434.6683 
    9560     312.9366    -2784.371            0    -2412.182    3645.9553    4441.3607 
    9580    309.13483   -2784.1754            0   -2416.5079     3428.629    4447.8827 
    9600    304.64646   -2783.9427            0   -2421.6135    3216.8626    4453.9775 
    9620    299.87046   -2783.6904            0   -2427.0415    3021.5216     4459.399 
    9640    295.20092   -2783.4397            0   -2432.3444    2852.6188    4463.9213 
    9660    290.99135   -2783.2123            0   -2437.1237    2718.8019    4467.3478 
    9680    287.53507   -2783.0277            0   -2441.0498    2627.0874    4469.5172 
    9700    285.05822   -2782.9002            0   -2443.8682    2582.7718    4470.3105 
    9720     283.7185   -2782.8366            0   -2445.3979    2589.4153    4469.6551 
    9740    283.60395   -2782.8349            0   -2445.5324    2648.8039    4467.5286 
    9760    284.72869   -2782.8838            0   -2444.2437    2760.8439    4463.9614 
    9780    287.02646    -2782.964            0    -2441.591    2923.3905    4459.0385 
    9800    290.34573   -2783.0498            0   -2437.7291    3132.0667    4452.8996 
    9820    294.45152   -2783.1126            0   -2432.9087    3380.1517    4445.7372 
    9840    299.03721   -2783.1249            0   -2427.4671    3658.6143     4437.793 
    9860      303.746   -2783.0648            0   -2421.8066    3956.3246    4429.3503 
    9880    308.19879   -2782.9198            0   -2416.3657    4260.4525    4420.7249 
    9900    312.02481   -2782.6899            0   -2411.5853    4557.0553    4412.2524 
    9920    314.89287   -2782.3888            0   -2407.8731    4831.8198    4404.2739 
    9940    316.54256   -2782.0426            0   -2405.5649    5070.8024    4397.1209 
    9960    316.81412   -2781.6868            0   -2404.8861    5261.5884    4391.1006 
    9980    315.67298   -2781.3604            0   -2405.9169    5394.1942    4386.4827 
   10000    313.22188      -2781.1            0   -2408.5717    5461.8738    4383.4875 
   10020    309.69297   -2780.9333            0   -2412.6021    5461.6034    4382.2774 
   10040    305.41768   -2780.8738            0   -2417.6274    5394.1562    4382.9496 
   10060    300.78044   -2780.9178            0   -2423.1866    5263.8104    4385.5311 
   10080    296.17017   -2781.0439            0   -2428.7959    5077.8322    4389.9755 
   10100    291.94201   -2781.2157            0   -2433.9964    4845.8873    4396.1614 
   10120    288.39514   -2781.3871            0   -2438.3863    4579.4567    4403.8935 
   10140    285.76428   -2781.5096            0   -2441.6378    4291.2452    4412.9069 
   10160    284.21806   -2781.5405            0   -2443.5077    3994.6161    4422.8744 
   10180    283.85815   -2781.4498            0   -2443.8451    3702.6913    4433.4192 
   10200    284.71523   -2781.2262            0   -2442.6021    3427.7414    4444.1306 
   10220    286.74211   -2780.8788            0    -2439.844    3180.4943    4454.5825 
   10240    289.80754   -2780.4361            0   -2435.7554    2969.5606    4464.3537 
   10260    293.69621   -2779.9417            0   -2430.6361    2801.1401    4473.0465 
   10280    298.11892   -2779.4477            0    -2424.882    2679.0215    4480.3037 
   10300    302.73315   -2779.0073            0   -2418.9537    2604.8473    4485.8217 
   10320    307.17043   -2778.6671            0    -2413.336    2578.5425    4489.3602 
   10340    311.06609   -2778.4609            0   -2408.4965    2598.7946    4490.7489 
   10360    314.08883   -2778.4048            0   -2404.8454    2663.4975    4489.8927 
   10380     315.9698   -2778.4945            0    -2402.698    2770.1159    4486.7746 
   10400    316.53098   -2778.7052            0   -2402.2412    2915.9448    4481.4596 
   10420    315.71032   -2778.9932            0   -2403.5053    3098.2324    4474.0963 
   10440    313.57755   -2779.3011            0   -2406.3497    3314.1156    4464.9181 
   10460    310.33249   -2779.5649            0   -2410.4731     3560.316    4454.2407 
   10480    306.28092   -2779.7237            0   -2415.4506    3832.6084    4442.4547 
   10500     301.7919   -2779.7292            0   -2420.7951    4125.1899    4430.0133 
   10520    297.24871   -2779.5553            0   -2426.0246    4430.1862    4417.4124 
   10540    293.00778   -2779.2042            0   -2430.7174    4737.6339    4405.1667 
   10560    289.37356   -2778.7079            0   -2434.5435    5035.5092    4393.7832 
   10580    286.58824   -2778.1243            0   -2437.2725    5310.8641    4383.7341 
   10600    284.83006   -2777.5276            0   -2438.7669    5550.7733    4375.4345 
   10620    284.21306   -2776.9965            0   -2438.9696    5743.4187    4369.2238 
   10640    284.78383   -2776.5996            0   -2437.8939    5879.0337    4365.3543 
   10660    286.51444   -2776.3844            0   -2435.6204     5950.593    4363.9831 
   10680    289.29494   -2776.3682            0   -2432.2973    5954.2239     4365.169 
   10700    292.93117   -2776.5353            0   -2428.1396     5889.379    4368.8707 
   10720     297.1528   -2776.8393            0   -2423.4226    5758.8219    4374.9474 
   10740    301.63285   -2777.2111            0   -2418.4662    5568.4426    4383.1615 
   10760    306.01484   -2777.5708            0   -2413.6142    5326.8794    4393.1841 
   10780    309.94214   -2777.8413            0   -2409.2137    5044.9298    4404.6059 
   10800    313.08629   -2777.9613            0   -2405.5943     4734.798    4416.9539 
   10820    315.17372   -2777.8962            0   -2403.0464    4409.4083    4429.7134 
   10840    316.01187    -2777.642            0   -2401.7954    4081.3976    4442.3546 
   10860    315.51382   -2777.2252            0    -2401.971    3762.9062    4454.3611 
   10880    313.71661   -2776.6964            0   -2403.5796    3465.2696    4465.2561 
   10900    310.78546   -2776.1205            0   -2406.4899    3198.8856    4474.6244 
   10920    306.99666   -2775.5665            0   -2410.4421    2973.0951    4482.1277 
   10940    302.69976   -2775.0964            0   -2415.0825    2795.9793    4487.5146 
   10960    298.26931   -2774.7579            0   -2420.0133    2674.0968    4490.6236 
   10980    294.06119    -2774.578            0   -2424.8383    2612.2546    4491.3842 
   11000    290.38409   -2774.5615            0   -2429.1951    2613.3733    4489.8141 
   11020    287.48703   -2774.6906            0   -2432.7698     2678.428    4486.0166 
   11040    285.55719   -2774.9284            0   -2435.3029    2806.3941    4480.1765 
   11060    284.72026   -2775.2243            0   -2436.5941    2994.1354    4472.5544 
   11080    285.03783   -2775.5207            0   -2436.5129    3236.2213    4463.4787 
   11100    286.50028    -2775.762            0   -2435.0148    3524.7248    4453.3348 
   11120    289.01791   -2775.9024            0   -2432.1609    3849.1064    4442.5488 
   11140    292.41628   -2775.9132            0   -2428.1299    4196.3274    4431.5684 
   11160    296.44214   -2775.7868            0   -2423.2153     4551.304    4420.8405 
   11180    300.78199   -2775.5372            0   -2417.8042    4897.8151    4410.7886 
   11200    305.08955   -2775.1973            0   -2412.3411    5219.3018    4401.7919 
   11220    309.01552   -2774.8117            0   -2407.2862     5500.335    4394.1672 
   11240    312.23501   -2774.4291            0   -2403.0746    5727.6379    4388.1577 
   11260    314.47211   -2774.0935            0   -2400.0782    5891.0172    4383.9251 
   11280    315.52346   -2773.8372            0   -2398.5715    5984.0759    4381.5486 
   11300    315.28183   -2773.6768            0   -2398.6985     6004.679    4381.0263 
   11320    313.75635   -2773.6118            0   -2400.4479    5955.1283    4382.2806 
   11340    311.08202   -2773.6265            0   -2403.6432    5841.9748    4385.1659 
   11360    307.50938   -2773.6939            0   -2407.9597    5675.4007    4389.4782 
   11380    303.37142   -2773.7818            0    -2412.969    5468.1926    4394.9664 
   11400     299.0357   -2773.8581            0    -2418.202    5234.4736    4401.3457 
   11420    294.85775   -2773.8963            0   -2423.2093    4988.4633    4408.3113 
   11440    291.14903   -2773.8787            0   -2427.6025    4743.4925    4415.5537 
   11460    288.16288   -2773.7979            0   -2431.0733    4511.3659    4422.7726 
   11480    286.09258   -2773.6568            0   -2433.3946    4302.0479    4429.6899 
   11500    285.07301   -2773.4665            0   -2434.4169    4123.3337      4436.06 
   11520    285.17913   -2773.2434            0   -2434.0675    3980.9597    4441.6776 
   11540    286.41861   -2773.0059            0   -2432.3559    3878.4975     4446.382 
   11560    288.72077    -2772.772            0   -2429.3839    3817.3266    4450.0587 
   11580    291.92866   -2772.5565            0   -2425.3532    3796.6764    4452.6392 
   11600    295.80229   -2772.3697            0   -2420.5592    3813.8061    4454.0985 
   11620    300.03695   -2772.2164            0   -2415.3695    3864.3533    4454.4516 
   11640    304.29267   -2772.0966            0   -2410.1881    3942.7947    4453.7496 
   11660    308.22596   -2772.0053            0   -2405.4188    4042.9115    4452.0751 
   11680     311.5169   -2771.9344            0   -2401.4339    4158.1844    4449.5376 
   11700    313.89083   -2771.8738            0   -2398.5498    4282.1161    4446.2686 
   11720    315.13792   -2771.8127            0   -2397.0055    4408.5322    4442.4164 
   11740    315.13393   -2771.7413            0   -2396.9389    4531.9112    4438.1414 
   11760    313.86148   -2771.6521            0   -2398.3631      4647.74    4433.6101 
   11780    311.42516   -2771.5402            0   -2401.1488    4752.8179    4428.9905 
   11800    308.04959   -2771.4044            0   -2405.0278    4845.3718    4424.4463 
   11820    304.05263   -2771.2466            0   -2409.6237    4924.9164    4420.1323 
   11840    299.79786   -2771.0715            0    -2414.509    4991.7159      4416.19 
   11860    295.64314   -2770.8859            0   -2419.2647    5046.4056    4412.7433 
   11880    291.90339   -2770.6972            0   -2423.5239    5089.6516     4409.895 
   11900    288.83433   -2770.5129            0   -2426.9898    5122.0635     4407.725 
   11920    286.63198   -2770.3392            0   -2429.4354    5144.2806    4406.2874 
   11940    285.43723   -2770.1801            0   -2430.6973    5157.0915    4405.6104 
   11960    285.33684   -2770.0371            0   -2430.6737    5161.4719    4405.6953 
   11980    286.35648    -2769.909            0   -2429.3328    5158.4876    4406.5173 
   12000     288.4468   -2769.7922            0     -2426.73    5149.0734    4408.0268 
   12020       291.47   -2769.6816            0   -2423.0237    5133.7849    4410.1512 
   12040    295.19798   -2769.5708            0    -2418.479    5112.6637    4412.7979 
   12060    299.32996   -2769.4536            0   -2413.4476    5085.3217    4415.8574 
   12080    303.52645    -2769.325            0   -2408.3278    5051.2114    4419.2076 
   12100    307.44649   -2769.1812            0   -2403.5219    5009.9303     4422.718 
   12120    310.77663   -2769.0211            0    -2399.401    4961.4338    4426.2545 
   12140    313.24918   -2768.8455            0   -2396.2847    4906.1142    4429.6844 
   12160    314.65519   -2768.6573            0   -2394.4243     4844.781    4432.8809 
   12180    314.85924   -2768.4613            0   -2393.9856    4778.8078    4435.7274 
   12200    313.81913   -2768.2631            0   -2395.0244    4710.2638    4438.1218 
   12220    311.60646   -2768.0682            0   -2397.4612    4642.1043    4439.9797 
   12240    308.41615   -2767.8819            0   -2401.0693    4578.2481    4441.2367 
   12260    304.55058    -2767.708            0   -2405.4928    4523.3611     4441.851 
   12280    300.37406   -2767.5483            0   -2410.3005     4482.294    4441.8042 
   12300    296.25354    -2767.403            0   -2415.0558    4459.3618    4441.1019 
   12320    292.51098   -2767.2698            0   -2419.3739    4457.7751    4439.7732 
   12340    289.40274   -2767.1452            0    -2422.946    4479.4075    4437.8701 
   12360    287.12176   -2767.0242            0   -2425.5379    4524.8496    4435.4652 
   12380    285.80863   -2766.9015            0    -2426.977    4593.5821    4432.6493 
   12400    285.55845   -2766.7722            0   -2427.1452     4684.112    4429.5282 
   12420    286.41621   -2766.6322            0    -2425.985    4793.9898    4426.2189 
   12440    288.35897   -2766.4789            0   -2423.5211    4919.6858     4422.845 
   12460    291.27179   -2766.3117            0   -2419.8895    5056.3302    4419.5326 
   12480    294.93341   -2766.1318            0   -2415.3548    5197.7395     4416.405 
   12500    299.03006   -2765.9424            0   -2410.2931    5336.6921    4413.5785 
   12520    303.20007   -2765.7477            0   -2405.1388    5465.6209    4411.1574 
   12540    307.08862   -2765.5525            0   -2400.3187    5577.4335    4409.2306 
   12560    310.38652   -2765.3614            0   -2396.2053     5666.127     4407.868 
   12580    312.84442   -2765.1782            0   -2393.0988    5727.0769    4407.1177 
   12600    314.27232   -2765.0051            0   -2391.2274    5757.1167    4407.0049 
   12620    314.53962   -2764.8425            0    -2390.747    5754.5832    4407.5302 
   12640    313.58592   -2764.6892            0   -2391.7279    5719.4543    4408.6704 
   12660    311.44514   -2764.5421            0    -2394.127    5653.6076    4410.3786 
   12680    308.27406   -2764.3973            0   -2397.7536    5561.0944    4412.5867 
   12700    304.36273   -2764.2502            0   -2402.2584    5448.1556    4415.2078 
   12720    300.10151   -2764.0967            0    -2407.173    5322.6773     4418.139 
   12740    295.90519   -2763.9336            0   -2412.0008    5193.1058    4421.2664 
   12760    292.13332    -2763.759            0   -2416.3122     5067.316    4424.4685 
   12780    289.05004   -2763.5729            0   -2419.7932    4951.9759    4427.6215 
   12800    286.83119    -2763.377            0   -2422.2362    4852.5274    4430.6039 
   12820    285.59509   -2763.1742            0   -2423.5036    4773.4057    4433.3011 
   12840    285.43115   -2762.9688            0   -2423.4932     4718.333    4435.6095 
   12860    286.41091   -2762.7651            0   -2422.1242    4690.3982    4437.4403 
   12880    288.57115   -2762.5672            0   -2419.3571    4691.7898    4438.7229 
   12900    291.86253   -2762.3783            0   -2415.2536    4723.1321    4439.4072 
   12920    296.07589   -2762.2002            0   -2410.0643    4782.5587    4439.4652 
   12940    300.80096   -2762.0328            0   -2404.2772    4865.1901    4438.8924 
   12960    305.48814   -2761.8746            0   -2398.5444    4963.8781    4437.7072 
   12980    309.60248   -2761.7228            0   -2393.4992    5071.0869    4435.9513 
   13000    312.75547   -2761.5733            0   -2389.5997    5180.5205    4433.6871 
   13020     314.7321   -2761.4217            0   -2387.0972    5287.4842    4430.9967 
   13040    315.44126   -2761.2636            0   -2386.0957    5388.3491    4427.9782 
   13060    314.85521   -2761.0957            0   -2386.6247     5479.829    4424.7426 
   13080     312.9724   -2760.9157            0   -2388.6841    5558.6348    4421.4097 
   13100    309.81324   -2760.7233            0   -2392.2491     5621.553    4418.1037 
   13120    305.45827   -2760.5201            0   -2397.2254    5666.0324    4414.9484 
   13140    300.13621   -2760.3092            0   -2403.3443    5691.4169    4412.0625 
   13160    294.31942   -2760.0951            0   -2410.0483    5700.2807     4409.555 
   13180    288.70099   -2759.8826            0    -2416.518    5698.3029    4407.5213 
   13200    283.98265   -2759.6763            0   -2421.9234    5691.7881    4406.0392 
   13220    280.63904   -2759.4797            0   -2425.7036    5684.8611    4405.1662 
   13240    278.86723    -2759.295            0   -2427.6262    5678.9163    4404.9374 
   13260    278.69502   -2759.1222            0   -2427.6582    5674.0003    4405.3639 
   13280    280.10313   -2758.9595            0   -2425.8207    5670.3371    4406.4322 
   13300    283.08044   -2758.8032            0   -2422.1234    5668.9913    4408.1047 
   13320    287.57599   -2758.6483            0   -2416.6218    5671.2224    4410.3208 
   13340      293.296   -2758.4893            0   -2409.6597    5675.8948    4412.9992 
   13360    299.39502   -2758.3209            0   -2402.2375    5675.5669    4416.0403 
   13380     304.4933   -2758.1392            0   -2395.9922    5656.5917    4419.3303 
   13400    307.49988   -2757.9422            0   -2392.2193    5609.1209    4422.7447 
   13420    308.54663     -2757.73            0   -2390.7622    5538.4332    4426.1533 
   13440    308.47744   -2757.5047            0   -2390.6191    5458.4764    4429.4249 
   13460    307.79273   -2757.2699            0   -2391.1987    5378.7604    4432.4325 
   13480    306.64047   -2757.0307            0     -2392.33    5304.1532    4435.0579 
   13500    305.07705   -2756.7929            0   -2393.9516      5237.94    4437.1964 
   13520      303.169    -2756.562            0     -2395.99    5183.0762    4438.7606 
   13540    301.01683   -2756.3428            0   -2398.3304    5142.4036    4439.6835 
   13560    298.75303   -2756.1384            0   -2400.8185    5118.5915    4439.9211 
   13580    296.52965     -2755.95            0   -2403.2745    5113.9621    4439.4544 
   13600    294.50291   -2755.7764            0   -2405.5114    5130.2888    4438.2901 
   13620    292.82005   -2755.6143            0   -2407.3507    5168.6298    4436.4606 
   13640    291.61199   -2755.4585            0   -2408.6317      5229.24    4434.0238 
   13660    290.99182   -2755.3029            0   -2409.2137    5311.5848    4431.0613 
   13680    291.05639    -2755.141            0   -2408.9751    5414.3413    4427.6756 
   13700     291.8862   -2754.9671            0   -2407.8142    5535.4559    4423.9876 
   13720    293.53714   -2754.7768            0   -2405.6604    5672.1357    4420.1314 
   13740    296.01786   -2754.5682            0   -2402.5013    5820.6538    4416.2503 
   13760    299.25197   -2754.3416            0   -2398.4283    5976.0066    4412.4912 
   13780    303.03966   -2754.1003            0   -2393.6821    6131.5882     4408.999 
   13800    307.05078   -2753.8493            0   -2388.6606     6279.274    4405.9106 
   13820    310.87428   -2753.5955            0   -2383.8593    6410.2135    4403.3502 
   13840    314.10414   -2753.3461            0   -2379.7684    6516.0847    4401.4234 
   13860    316.40607   -2753.1073            0   -2376.7919    6590.1021    4400.2136 
   13880    317.52666   -2752.8841            0   -2375.2359      6627.29    4399.7781 
   13900    317.25088   -2752.6785            0   -2375.3583    6624.0778    4400.1456 
   13920     315.3397   -2752.4898            0   -2377.4426    6577.5967    4401.3145 
   13940    311.50914   -2752.3145            0   -2381.8232    6485.4355    4403.2529 
   13960    305.59631   -2752.1468            0   -2388.6879    6347.6501    4405.8984 
   13980    298.04715   -2751.9796            0   -2397.4992     6172.682    4409.1606 
   14000    290.26537   -2751.8051            0     -2406.58     5981.496    4412.9233 
   14020    283.90087   -2751.6164            0   -2413.9608    5798.5876    4417.0493 
   14040     279.7699    -2751.408            0   -2418.6655    5638.4739    4421.3849 
   14060    277.82646   -2751.1774            0   -2420.7464    5505.1717     4425.766 
   14080    277.71422   -2750.9256            0    -2420.628    5398.8328    4430.0243 
   14100    279.07587   -2750.6568            0   -2418.7398    5319.3933    4433.9932 
   14120    281.58371   -2750.3782            0   -2415.4785    5266.8373    4437.5147 
   14140    284.88188   -2750.0984            0   -2411.2761    5240.3034    4440.4449 
   14160    288.56174   -2749.8266            0   -2406.6276    5237.7514    4442.6597 
   14180    292.21559    -2749.571            0   -2402.0264     5256.557    4444.0591 
   14200    295.53073   -2749.3378            0   -2397.8503    5294.5987    4444.5713 
   14220    298.34086   -2749.1299            0   -2394.3002    5350.8427    4444.1556 
   14240    300.60194   -2748.9466            0   -2391.4277     5425.013    4442.8046 
   14260     302.3335   -2748.7833            0   -2389.2051    5516.8432     4440.545 
   14280    303.57276   -2748.6322            0     -2387.58    5625.4882    4437.4382 
   14300    304.35444    -2748.483            0   -2386.5011    5749.2818     4433.579 
   14320     304.7074   -2748.3244            0   -2385.9227    5885.6311    4429.0936 
   14340    304.65755   -2748.1458            0   -2385.8034    6031.0839    4424.1361 
   14360     304.2311    -2747.939            0   -2386.1038    6181.4546    4418.8834 
   14380    303.45562   -2747.6996            0   -2386.7867     6331.921    4413.5294 
   14400    302.35791   -2747.4277            0   -2387.8204    6477.1519    4408.2775 
   14420    300.95814   -2747.1287            0   -2389.1862    6611.4428    4403.3331 
   14440    299.25985   -2746.8124            0   -2390.8897    6728.8472    4398.8948 
   14460    297.23709   -2746.4918            0   -2392.9749    6823.3079    4395.1465 
   14480    294.82719   -2746.1813            0   -2395.5306    6888.8719    4392.2501 
   14500    291.95449   -2745.8944            0   -2398.6603    6920.2823    4390.3381 
   14520    288.61925   -2745.6413            0    -2402.374    6914.3511    4389.5082 
   14540    285.02295   -2745.4275            0   -2406.4374    6871.7271    4389.8189 
   14560    281.59544   -2745.2518            0   -2410.3382    6797.3736    4391.2863 
   14580    278.86394   -2745.1071            0   -2413.4421    6698.9879    4393.8823 
   14600    277.30338   -2744.9801            0   -2415.1712    6585.0957    4397.5344 
   14620     277.2962   -2744.8541            0   -2415.0537    6464.4135    4402.1272 
   14640     279.1548   -2744.7109            0      -2412.7    6345.9147    4407.5056 
   14660    283.06159   -2744.5339            0   -2407.8765    6237.8224    4413.4795 
   14680    288.81673   -2744.3107            0   -2400.8085     6144.206    4419.8303 
   14700     295.5653   -2744.0353            0   -2392.5067    6061.3401    4426.3197 
   14720    302.03422   -2743.7095            0   -2384.4872    5980.3608    4432.6982 
   14740    307.25466   -2743.3428            0   -2377.9115     5895.888    4438.7157 
   14760    310.89807   -2742.9509            0   -2373.1864    5809.9206    4444.1308 
   14780    313.03144   -2742.5539            0   -2370.2521    5728.4846    4448.7209 
   14800    313.82018   -2742.1729            0    -2368.933    5658.0323    4452.2902 
   14820    313.41127   -2741.8274            0   -2369.0738    5603.8923    4454.6776 
   14840    311.92943   -2741.5324            0   -2370.5412    5570.1899    4455.7625 
   14860    309.50769   -2741.2964            0   -2373.1855    5560.2033    4455.4698 
   14880    306.32096   -2741.1197            0   -2376.7989    5576.7479    4453.7731 
   14900    302.60844   -2740.9941            0   -2381.0888    5622.4148    4450.6974 
   14920    298.67178   -2740.9034            0   -2385.6802    5699.4925    4446.3204 
   14940    294.84103   -2740.8255            0   -2390.1584    5809.4859    4440.7721 
   14960    291.42101   -2740.7349            0   -2394.1353    5952.4429    4434.2326 
   14980    288.64825   -2740.6064            0   -2397.3046    6126.2394     4426.928 
   15000    286.68265   -2740.4193            0   -2399.4553    6326.5594     4419.123 
   15020     285.6373   -2740.1606            0   -2400.4399    6547.3545    4411.1117 
   15040     285.6437   -2739.8281            0   -2400.0997    6781.8169    4403.2057 
   15060    286.96736   -2739.4309            0   -2398.1282    7024.1209    4395.7207 
   15080    290.18855    -2738.989            0   -2393.8553    7272.0951    4388.9628 
   15100    296.22507   -2738.5303            0    -2386.217    7528.0309    4383.2145 
   15120    305.31342   -2738.0858            0   -2374.9633    7786.5727    4378.7233 
   15140    315.22677   -2737.6855            0   -2362.7727      8013.01    4375.6908 
   15160    322.71513    -2737.354            0    -2353.535    8161.5582    4374.2644 
   15180    326.63843   -2737.1055            0   -2348.6203    8214.8173    4374.5309 
   15200    327.49681   -2736.9403            0   -2347.4342    8178.3305    4376.5121 
   15220    325.98166   -2736.8444            0   -2349.1403    8062.6686    4380.1628 
   15240    322.62834   -2736.7913            0   -2353.0754    7878.9851    4385.3706 
   15260    317.95349   -2736.7461            0   -2358.5903    7640.4234    4391.9584 
   15280    312.57154   -2736.6716            0   -2364.9168    7363.1129    4399.6888 
   15300     307.1458   -2736.5341            0   -2371.2323    7064.9972    4408.2728 
   15320    302.22076   -2736.3089            0   -2376.8647    6763.1466    4417.3807 
   15340    298.10434   -2735.9853            0    -2381.437    6471.7173     4426.656 
   15360    294.89187   -2735.5678            0   -2384.8401    6201.7394     4435.732 
   15380    292.56458   -2735.0754            0   -2387.1157    5961.9669    4444.2477 
   15400    291.07079    -2734.539            0    -2388.356    5759.5474     4451.864 
   15420    290.36395   -2733.9965            0   -2388.6541    5600.2908    4458.2777 
   15440    290.41147   -2733.4867            0   -2388.0878    5488.8916    4463.2322 
   15460    291.19105   -2733.0443            0   -2386.7182    5428.8762    4466.5263 
   15480    292.68256   -2732.6947            0   -2384.5946    5422.5853    4468.0201 
   15500     294.8572   -2732.4506            0   -2381.7642    5471.1134    4467.6386 
   15520     297.6633   -2732.3102            0   -2378.2864    5574.1644    4465.3744 
   15540    301.00954   -2732.2567            0   -2374.2531    5729.8123    4461.2891 
   15560    304.75012   -2732.2606            0   -2369.8081    5934.2207    4455.5128 
   15580    308.68159   -2732.2828            0   -2365.1544    6181.4556     4448.243 
   15600    312.56014   -2732.2801            0   -2360.5388     6463.561    4439.7401 
   15620    316.13523   -2732.2113            0    -2356.218    6770.8441    4430.3202 
   15640    319.17691   -2732.0437            0   -2352.4328    7092.0364    4420.3438 
   15660    321.46041   -2731.7588            0    -2349.432    7414.4298    4410.2014 
   15680    322.66999    -2731.356            0   -2347.5907    7722.9291    4400.2956 
   15700    322.23191   -2730.8538            0   -2347.6095     7998.467    4391.0223 
   15720    319.29521   -2730.2871            0   -2350.5355    8218.3835    4382.7514 
   15740    313.28532   -2729.7021            0   -2357.0984    8364.0353     4375.811 
   15760     304.9217    -2729.149            0   -2366.4924     8434.284    4370.4729 
   15780    296.30846   -2728.6724            0   -2376.2599    8447.4348    4366.9435 
   15800    289.30209   -2728.3044            0    -2384.225     8421.458    4365.3568 
   15820     284.4399   -2728.0594            0   -2389.7627    8360.8643    4365.7715 
   15840    281.51204   -2727.9317            0   -2393.1172    8263.8896    4368.1696 
   15860    280.23985    -2727.897            0   -2394.5957    8130.8821    4372.4562 
   15880    280.46867   -2727.9162            0   -2394.3427    7966.4555     4378.463 
   15900    282.13432   -2727.9414            0   -2392.3869    7778.6295    4385.9525 
   15920    285.16787   -2727.9242            0   -2388.7617    7577.0523    4394.6266 
   15940     289.3727   -2727.8231            0   -2383.6596    7370.7937     4404.138 
   15960    294.32309   -2727.6107            0   -2377.5595    7166.3945    4414.1047 
   15980    299.39272   -2727.2772            0   -2371.1965    6967.5806    4424.1281 
   16000     303.9504    -2726.832            0   -2365.3306    6777.1329     4433.811 
   16020    307.56518   -2726.3007            0   -2360.5002    6599.0017    4442.7761 
   16040     310.0552   -2725.7211            0   -2356.9591    6438.6929    4450.6824 
   16060      311.409   -2725.1364            0   -2354.7643    6302.0272    4457.2383 
   16080    311.69411   -2724.5891            0   -2353.8779    6194.2178     4462.211 
   16100    311.00699   -2724.1148            0   -2354.2208    6119.3606    4465.4323 
   16120    309.45893   -2723.7381            0   -2355.6852    6080.3815    4466.8019 
   16140     307.1792   -2723.4693            0   -2358.1278    6079.1921    4466.2882 
   16160    304.32195    -2723.304            0   -2361.3608    6116.8437     4463.928 
   16180    301.06877   -2723.2237            0   -2365.1496    6193.5699    4459.8244 
   16200    297.62123   -2723.1982            0   -2369.2244    6308.6585    4454.1442 
   16220    294.18179   -2723.1904            0   -2373.3073    6460.1538    4447.1132 
   16240     290.9276   -2723.1608            0   -2377.1481    6644.5445    4439.0091 
   16260    287.98678   -2723.0738            0   -2380.5587    6856.2856    4430.1518 
   16280    285.42962   -2722.9026            0   -2383.4288    7087.8825    4420.8912 
   16300    283.29194   -2722.6337            0   -2385.7024    7330.4009     4411.592 
   16320    281.66737   -2722.2689            0   -2387.2697    7574.9249     4402.617 
   16340    280.88311   -2721.8246            0   -2387.7582    7815.2134    4394.3113 
   16360    281.55831   -2721.3292            0   -2386.4597    8049.0133    4386.9865 
   16380    284.28762   -2720.8176            0    -2382.702    8274.7385    4380.9079 
   16400    289.17674   -2720.3257            0   -2376.3953     8486.224    4376.2854 
   16420    295.57692   -2719.8846            0   -2368.3422    8669.8305     4373.266 
   16440    302.28566   -2719.5161            0   -2359.9947    8807.2458    4371.9311 
   16460    308.20132    -2719.229            0   -2352.6719    8883.8433    4372.2947 
   16480    312.75019   -2719.0191            0   -2347.0517    8894.0725    4374.3047 
   16500    315.77398   -2718.8691            0   -2343.3054    8839.9453    4377.8464 
   16520    317.27321   -2718.7529            0   -2341.4061    8727.5411    4382.7472 
   16540    317.27488   -2718.6397            0    -2341.291    8564.9216    4388.7843 
   16560    315.81363   -2718.4999            0   -2342.8891    8361.3664    4395.6937 
   16580    312.97054   -2718.3091            0   -2346.0797    8127.2849    4403.1821 
   16600    308.94088   -2718.0525            0   -2350.6158    7874.4941    4410.9394 
   16620    304.09474   -2717.7263            0   -2356.0533    7616.4647    4418.6533 
   16640    298.96611   -2717.3373            0    -2361.764    7367.7814    4426.0227 
   16660     294.1323   -2716.9016            0   -2367.0774    7142.3842    4432.7709 
   16680    290.05509   -2716.4409            0   -2371.4659    6951.4793    4438.6564 
   16700    287.00475   -2715.9791            0   -2374.6319    6802.5858    4443.4813 
   16720    285.09384   -2715.5386            0   -2376.4642    6700.0056     4447.097 
   16740    284.35547   -2715.1374            0   -2376.9411    6645.8465    4449.4074 
   16760    284.80712   -2714.7867            0   -2376.0533    6640.9142    4450.3694 
   16780    286.48274   -2714.4898            0   -2373.7635    6685.1823    4449.9922 
   16800    289.42843   -2714.2423            0   -2370.0126    6777.8378    4448.3349 
   16820    293.64255   -2714.0329            0   -2364.7911    6916.5903     4445.502 
   16840    298.93539   -2713.8454            0   -2358.3086     7095.965    4441.6391 
   16860    304.76393   -2713.6614            0   -2351.1924    7305.3321    4436.9258 
   16880    310.24953    -2713.463            0   -2344.4698    7529.1368    4431.5688 
   16900    314.50435   -2713.2356            0    -2339.182     7750.997    4425.7927 
   16920    317.00082   -2712.9696            0   -2335.9469    7958.3994    4419.8306 
   16940    317.67812   -2712.6615            0   -2334.8332    8144.2637    4413.9148 
   16960    316.84043   -2712.3139            0   -2335.4819    8305.9958    4408.2667 
   16980    314.99929   -2711.9346            0   -2337.2924    8443.8623    4403.0883 
   17000    312.68015   -2711.5354            0   -2339.6513    8558.8986     4398.555 
   17020    310.23763   -2711.1294            0   -2342.1504    8650.8798    4394.8095 
   17040    307.81427   -2710.7298            0    -2344.633     8718.007    4391.9579 
   17060    305.43769   -2710.3475            0   -2347.0773    8758.2527    4390.0671 
   17080    303.11766   -2709.9897            0   -2349.4788    8770.6443    4389.1646 
   17100    300.88494   -2709.6591            0   -2351.8036    8755.7557    4389.2392 
   17120    298.79383    -2709.354            0   -2353.9856    8715.6748    4390.2433 
   17140    296.91335   -2709.0689            0   -2355.9371    8653.7629    4392.0967 
   17160    295.31802   -2708.7955            0    -2357.561    8574.3544    4394.6908 
   17180    294.08175   -2708.5243            0   -2358.7601    8482.4594    4397.8943 
   17200    293.27609   -2708.2462            0   -2359.4402    8383.4997    4401.5588 
   17220    292.97284   -2707.9536            0   -2359.5084    8283.1011    4405.5259 
   17240    293.25107   -2707.6417            0   -2358.8655    8186.9521    4409.6329 
   17260    294.20656   -2707.3084            0   -2357.3959    8100.7256    4413.7199 
   17280    295.95832   -2706.9548            0   -2354.9588    8029.9969    4417.6355 
   17300    298.63565   -2706.5843            0    -2351.404     7979.967    4421.2419 
   17320    302.31744    -2706.202            0   -2346.6428    7954.6375    4424.4193 
   17340    306.90845   -2705.8139            0   -2340.7944    7955.2486    4427.0695 
   17360    312.01624   -2705.4258            0   -2334.3314    7978.7552    4429.1179 
   17380    316.97594    -2705.043            0   -2328.0498    8018.1351    4430.5146 
   17400    321.06414   -2704.6695            0    -2322.814    8065.0287    4431.2351 
   17420    323.71318   -2704.3076            0   -2319.3016    8112.3885    4431.2791 
   17440    324.54672   -2703.9581            0   -2317.9607    8154.9458    4430.6699 
   17460    323.27208   -2703.6198            0   -2319.1383    8187.9267     4429.452 
   17480     319.5778   -2703.2904            0   -2323.2027    8205.8376     4427.689 
   17500    313.25479   -2702.9669            0   -2330.3995    8204.0024    4425.4609 
   17520    304.80903   -2702.6463            0   -2340.1237    8186.1644    4422.8604 
   17540    296.05702   -2702.3249            0   -2350.2115    8171.9354    4419.9903 
   17560     289.1313   -2701.9993            0   -2358.1229    8184.7161    4416.9591 
   17580    284.83379    -2701.666            0   -2362.9008    8231.5011    4413.8786 
   17600    282.77392    -2701.323            0   -2365.0077    8304.5803    4410.8592 
   17620    282.33779   -2700.9702            0   -2365.1737    8393.5213    4408.0068 
   17640    283.10868   -2700.6091            0   -2363.8957    8490.4572    4405.4187 
   17660    284.84625   -2700.2422            0   -2361.4622    8589.9479    4403.1808 
   17680    287.37515   -2699.8724            0   -2358.0847    8687.7125    4401.3646 
   17700    290.50355   -2699.5028            0   -2353.9944    8779.7109    4400.0255 
   17720    293.98773   -2699.1357            0   -2349.4834    8861.7727    4399.2006 
   17740    297.54216   -2698.7728            0   -2344.8931    8929.7683    4398.9084 
   17760    300.88249   -2698.4146            0    -2340.562    8980.1624    4399.1481 
   17780    303.77296   -2698.0604            0   -2336.7701    9010.5988    4399.9002 
   17800    306.05188   -2697.7087            0    -2333.708    9020.1864    4401.1272 
   17820    307.62997   -2697.3572            0   -2331.4796    9009.4246     4402.775 
   17840    308.47348   -2697.0033            0   -2330.1225    8979.9176    4404.7756 
   17860    308.58526   -2696.6446            0   -2329.6308    8934.0465     4407.049 
   17880    307.98942   -2696.2791            0    -2329.974    8874.6749    4409.5063 
[...]
   55780    303.94615   -2442.5884            0   -2081.0921    18494.764    4442.3518 
   55800    308.99493   -2443.1789            0   -2075.6779     18553.03    4441.5957 
   55820    313.30334   -2443.8134            0   -2071.1882    18626.216    4439.8577 
   55840    316.48431   -2444.4819            0   -2068.0734      18707.4    4437.2454 
   55860    318.29576   -2445.1718            0   -2066.6089    18791.073     4433.888 
   55880    318.58129   -2445.8696            0   -2066.9672    18872.454    4429.9305 
   55900    317.22519   -2446.5625            0   -2069.2728    18946.957    4425.5294 
   55920    314.16712   -2447.2379            0   -2073.5854    19019.872    4420.8489 
   55940    309.51891   -2447.8855            0   -2079.7613    19078.767    4416.0639 
   55960    303.76966   -2448.5004            0    -2087.214    19122.627    4411.3458 
   55980    297.85989    -2449.082            0   -2094.8243    19158.604    4406.8531 
   56000    292.84325   -2449.6338            0   -2101.3427     19195.64    4402.7271 
   56020     289.3706   -2450.1624            0   -2106.0015    19238.154    4399.0901 
   56040    287.53922    -2450.676            0   -2108.6932    19284.246     4396.043 
   56060    287.10986   -2451.1828            0   -2109.7106    19328.457    4393.6639 
   56080    287.75112     -2451.69            0   -2109.4552    19364.881    4392.0064 
   56100    289.16079   -2452.2031            0   -2108.2916    19388.733    4391.0994 
   56120    291.09303    -2452.725            0   -2106.5155    19396.725    4390.9471 
   56140    293.34786   -2453.2566            0   -2104.3653    19386.933    4391.5296 
   56160    295.75526   -2453.7963            0   -2102.0418    19358.553    4392.8045 
   56180    298.16548   -2454.3409            0   -2099.7198     19311.71     4394.709 
   56200    300.44605   -2454.8859            0   -2097.5524    19247.316    4397.1619 
   56220    302.48257   -2455.4266            0   -2095.6711     19166.96    4400.0667 
   56240    304.18023   -2455.9587            0    -2094.184    19072.795    4403.3152 
   56260    305.46422   -2456.4787            0   -2093.1769    18967.416      4406.79 
   56280      306.278   -2456.9849            0   -2092.7152    18853.711    4410.3693 
   56300    306.57878   -2457.4772            0   -2092.8499    18734.697    4413.9301 
   56320    306.32859   -2457.9576            0   -2093.6278    18613.312    4417.3521 
   56340    305.47758   -2458.4293            0   -2095.1116    18492.125    4420.5214 
   56360    303.93314   -2458.8969            0   -2097.4161    18372.878    4423.3342 
   56380    301.50929   -2459.3652            0   -2100.7672    18255.799    4425.6993 
   56400    297.87938    -2459.839            0   -2105.5582    18138.969    4427.5413 
   56420    292.67672   -2460.3217            0   -2112.2286    18019.513     4428.802 
   56440    286.00074   -2460.8153            0   -2120.6623    17899.757    4429.4419 
   56460    278.98664   -2461.3208            0   -2129.5099    17794.153    4429.4416 
   56480    273.26753   -2461.8383            0   -2136.8294    17722.606    4428.8036 
   56500    269.80866   -2462.3672            0   -2141.4721    17696.151    4427.5537 
   56520    268.76113   -2462.9058            0   -2143.2565    17715.199    4425.7409 
   56540    269.97975   -2463.4511            0   -2142.3525    17775.962    4423.4362 
   56560    273.29909   -2463.9994            0    -2138.953     17873.91    4420.7297 
   56580    278.43413   -2464.5472            0   -2133.3934    18002.638    4417.7267 
   56600    284.68021   -2465.0911            0   -2126.5086    18150.257    4414.5445 
   56620    290.85864   -2465.6286            0   -2119.6978     18298.84    4411.3065 
   56640    295.92499   -2466.1576            0   -2114.2012     18432.03    4408.1374 
   56660    299.60056   -2466.6775            0   -2110.3496    18542.964    4405.1572 
   56680    302.17634   -2467.1891            0   -2107.7978    18631.991    4402.4769 
   56700     303.9897   -2467.6948            0   -2106.1467    18700.335    4400.1953 
   56720     305.2268   -2468.1976            0   -2105.1782    18747.756    4398.3958 
   56740    305.95586   -2468.7006            0   -2104.8141    18773.073    4397.1437 
   56760    306.18865   -2469.2061            0   -2105.0427    18775.008    4396.4845 
   56780    305.91947   -2469.7154            0   -2105.8721    18752.745    4396.4424 
   56800    305.14691   -2470.2283            0   -2107.3038     18706.23    4397.0191 
   56820    303.88681   -2470.7432            0   -2109.3175     18636.34    4398.1941 
   56840    302.18084   -2471.2573            0   -2111.8606    18544.954    4399.9256 
   56860    300.10206   -2471.7671            0   -2114.8427    18434.953    4402.1511 
   56880    297.75652   -2472.2688            0   -2118.1341    18310.141    4404.7905 
   56900    295.27896   -2472.7591            0    -2121.571     18175.08    4407.7484 
   56920    292.82245   -2473.2356            0   -2124.9692    18034.825    4410.9178 
   56940    290.54456   -2473.6977            0   -2128.1405    17894.628    4414.1838 
   56960    288.59627   -2474.1462            0   -2130.9062    17759.676    4417.4281 
   56980    287.12114   -2474.5838            0   -2133.0982    17634.967     4420.533 
   57000    286.27026   -2475.0148            0   -2134.5412    17525.391    4423.3863 
   57020    286.23437   -2475.4445            0   -2135.0136    17436.027    4425.8852 
   57040    287.28145   -2475.8789            0   -2134.2027    17372.512    4427.9403 
   57060    289.75658    -2476.324            0   -2131.7039    17340.956    4429.4793 
   57080    293.95929   -2476.7849            0   -2127.1664    17346.366    4430.4499 
   57100    299.84547   -2477.2656            0   -2120.6464    17388.937    4430.8219 
   57120    306.73504   -2477.7681            0   -2112.9549    17460.465    4430.5887 
   57140    313.45562   -2478.2915            0   -2105.4852    17546.125    4429.7665 
   57160    318.93342   -2478.8325            0   -2099.5112    17631.767    4428.3926 
   57180    322.57474   -2479.3857            0   -2095.7336    17708.636    4426.5231 
   57200    324.17239   -2479.9449            0   -2094.3927    17772.283    4424.2299 
   57220    323.68529   -2480.5036            0   -2095.5307    17819.932    4421.5985 
   57240    321.15198   -2481.0558            0   -2099.0959    17849.492    4418.7241 
   57260    316.77679   -2481.5964            0   -2104.8401    17860.704    4415.7092 
   57280    311.12517   -2482.1219            0   -2112.0873    17857.626    4412.6591 
   57300    305.18871   -2482.6307            0   -2119.6566    17849.519    4409.6796 
   57320     300.0345   -2483.1236            0   -2126.2796     17846.59    4406.8742 
   57340    296.27923   -2483.6033            0   -2131.2257    17853.583    4404.3408 
   57360    293.96164   -2484.0738            0   -2134.4525    17868.284      4402.17 
   57380    292.81574   -2484.5392            0   -2136.2807    17884.993     4400.441 
   57400    292.54601   -2485.0035            0   -2137.0659    17898.041     4399.219 
   57420    292.93176     -2485.47            0   -2137.0736    17903.176    4398.5528 
   57440    293.82315   -2485.9407            0   -2136.4841    17897.604     4398.472 
   57460    295.11021   -2486.4164            0    -2135.429    17879.655    4398.9868 
   57480    296.69808   -2486.8963            0   -2134.0205    17848.503    4400.0863 
   57500    298.49337   -2487.3786            0   -2132.3676    17803.986    4401.7393 
   57520    300.39898   -2487.8602            0   -2130.5827    17746.505     4403.895 
   57540    302.31462   -2488.3377            0   -2128.7819    17676.962    4406.4841 
   57560    304.13981   -2488.8077            0   -2127.0811    17596.704    4409.4213 
   57580    305.77634   -2489.2675            0   -2125.5945    17507.452    4412.6079 
   57600    307.12527   -2489.7155            0   -2124.4381    17411.149     4415.935 
   57620    308.07159   -2490.1515            0   -2123.7487    17309.659    4419.2871 
   57640    308.44749    -2490.577            0   -2123.7271    17204.207    4422.5461 
   57660    307.97875    -2490.995            0   -2124.7025    17094.626    4425.5954 
   57680    306.27853   -2491.4092            0    -2127.139    16979.195    4428.3238 
   57700    303.02198   -2491.8242            0   -2131.4271    16856.705    4430.6291 
   57720    298.29835   -2492.2443            0   -2137.4652    16730.681    4432.4215 
   57740    292.80487   -2492.6737            0   -2144.4282    16611.646    4433.6275 
   57760    287.55858   -2493.1158            0     -2151.11    16513.484    4434.1927 
   57780    283.37116   -2493.5733            0   -2156.5478     16446.92    4434.0858 
   57800    280.62733    -2494.047            0   -2160.2848    16416.783    4433.2999 
   57820    279.42181   -2494.5355            0   -2162.2071    16423.677    4431.8545 
   57840    279.75588   -2495.0359            0   -2162.3102    16466.414    4429.7942 
   57860    281.63457   -2495.5435            0   -2160.5834    16543.241    4427.1881 
   57880    285.05716   -2496.0532            0   -2157.0224    16651.767    4424.1273 
   57900     289.9096   -2496.5597            0   -2151.7576    16787.708    4420.7223 
   57920     295.7947   -2497.0587            0   -2145.2573    16942.861    4417.0986 
   57940    301.96171   -2497.5471            0    -2138.411    17104.321    4413.3926 
   57960    307.52299   -2498.0234            0    -2132.273     17257.26    4409.7454 
   57980    311.81908   -2498.4876            0   -2127.6277    17389.559    4406.2977 
   58000     314.5785   -2498.9416            0   -2124.7998    17493.947    4403.1834 
   58020    315.82085   -2499.3887            0   -2123.7693    17566.986    4400.5249 
   58040    315.70783   -2499.8332            0   -2124.3483    17607.402    4398.4281 
   58060    314.46452   -2500.2794            0   -2126.2732    17615.278    4396.9796 
   58080    312.36313   -2500.7307            0   -2129.2237    17591.986    4396.2425 
   58100    309.72324    -2501.189            0   -2132.8218    17540.298    4396.2549 
   58120    306.89143   -2501.6544            0   -2136.6552    17464.192    4397.0287 
   58140    304.19053    -2502.125            0    -2140.338    17368.235    4398.5482 
   58160    301.86058   -2502.5968            0   -2143.5809    17256.824    4400.7715 
   58180    300.02702   -2503.0647            0   -2146.2296     17133.72    4403.6307 
   58200    298.71156   -2503.5231            0   -2148.2525    17002.083    4407.0347 
   58220    297.87036   -2503.9666            0   -2149.6965    16864.809    4410.8713 
   58240     297.4331   -2504.3911            0    -2150.641    16724.871    4415.0107 
   58260     297.3275   -2504.7944            0     -2151.17    16585.467    4419.3102 
   58280    297.48875   -2505.1773            0   -2151.3611    16449.987    4423.6183 
   58300    297.86011   -2505.5431            0   -2151.2852     16321.89    4427.7806 
   58320    298.39052   -2505.8976            0   -2151.0088    16204.549    4431.6448 
   58340    299.03212   -2506.2489            0   -2150.5971    16101.117    4435.0666 
   58360    299.73887    -2506.606            0   -2150.1136    16014.401    4437.9148 
   58380    300.46626    -2506.978            0   -2149.6205     15946.76    4440.0763 
   58400    301.17136   -2507.3728            0   -2149.1767    15899.991    4441.4607 
   58420    301.81231   -2507.7959            0   -2148.8375    15875.241    4442.0039 
   58440    302.34487   -2508.2498            0    -2148.658    15872.883    4441.6706 
   58460    302.71136   -2508.7334            0   -2148.7057    15892.333    4440.4566 
   58480    302.81284    -2509.242            0   -2149.0936    15931.696    4438.3893 
   58500    302.46394   -2509.7677            0   -2150.0343    15987.236    4435.5275 
   58520    301.39131   -2510.3004            0   -2151.8427    16053.398    4431.9595 
   58540    299.38959   -2510.8287            0   -2154.7518    16124.779    4427.8009 
   58560    296.54011   -2511.3418            0   -2158.6538     16198.89    4423.1903 
   58580    293.22944   -2511.8307            0   -2163.0802    16276.451    4418.2856 
   58600    289.97006   -2512.2896            0   -2167.4157    16359.263    4413.2586 
   58620    287.21447    -2512.717            0   -2171.1204     16448.01    4408.2894 
   58640    285.27553   -2513.1153            0   -2173.8248    16541.388    4403.5608 
   58660    284.34315   -2513.4912            0   -2175.3097    16636.471    4399.2515 
   58680    284.53439   -2513.8544            0   -2175.4454    16729.528      4395.53 
   58700    285.92822   -2514.2161            0   -2174.1494    16816.697    4392.5479 
   58720    288.56159   -2514.5879            0   -2171.3892    16894.184    4390.4345 
   58740    292.37849   -2514.9796            0   -2167.2412    16957.878    4389.2919 
   58760    297.14779   -2515.3975            0   -2161.9868    17002.548    4389.1908 
   58780    302.41598   -2515.8438            0   -2156.1674    17021.437    4390.1669 
   58800    307.57826    -2516.315            0   -2150.4989    17007.263    4392.2185 
   58820    312.05171   -2516.8028            0   -2145.6663     16954.41     4395.305 
   58840    315.41495    -2517.295            0   -2142.1584    16860.619    4399.3465 
   58860    317.42632   -2517.7769            0   -2140.2481    16727.057    4404.2248 
   58880    317.96226   -2518.2341            0   -2140.0678    16557.339    4409.7863 
   58900    316.95267   -2518.6542            0   -2141.6887    16356.448    4415.8462 
   58920    314.35761   -2519.0291            0     -2145.15    16130.159    4422.1946 
   58940    310.21647   -2519.3566            0   -2150.4028    15885.379    4428.6035 
   58960    304.79542   -2519.6409            0   -2157.1346    15631.728    4434.8352 
   58980    298.76062   -2519.8928            0   -2164.5639     15383.47    4440.6514 
   59000    293.11462   -2520.1286            0   -2171.5148    15158.541    4445.8228 
   59020    288.76987   -2520.3687            0   -2176.9222    14973.206    4450.1391 
   59040    286.15312   -2520.6342            0   -2180.2999    14837.102     4453.418 
   59060    285.19707   -2520.9441            0   -2181.7469    14753.001    4455.5131 
   59080    285.56201   -2521.3125            0   -2181.6812    14719.489    4456.3201 
   59100    286.84511   -2521.7459            0   -2180.5886    14732.717    4455.7811 
   59120    288.70633   -2522.2427            0   -2178.8718    14789.123    4453.8875 
   59140    290.90968   -2522.7927            0   -2176.8012    14884.645    4450.6816 
   59160    293.30257   -2523.3787            0   -2174.5413    15015.151    4446.2556 
   59180    295.77548   -2523.9787            0   -2172.2001    15175.965    4440.7496 
   59200    298.23195   -2524.5685            0   -2169.8683    15361.608    4434.3481 
   59220    300.57547   -2525.1253            0   -2167.6379    15565.739    4427.2736 
   59240    302.70788   -2525.6309            0   -2165.6073    15781.124    4419.7798 
   59260    304.53287   -2526.0741            0     -2163.88    15999.711     4412.142 
   59280    305.96013   -2526.4527            0   -2162.5611    16212.735     4404.647 
   59300     306.9072   -2526.7742            0   -2161.7562    16410.921    4397.5818 
   59320    307.29721   -2527.0544            0   -2161.5725    16584.782    4391.2217 
   59340    307.05075   -2527.3157            0    -2162.127    16724.961    4385.8195 
   59360    306.07053   -2527.5834            0   -2163.5605    16822.564    4381.5955 
   59380    304.22135   -2527.8815            0   -2166.0579    16869.427    4378.7288 
   59400    301.32353   -2528.2285            0   -2169.8514    16858.501    4377.3508 
   59420    297.21606   -2528.6346            0   -2175.1427    16785.006    4377.5397 
   59440    291.96026   -2529.0991            0   -2181.8582    16649.194     4379.317 
   59460    286.09282   -2529.6107            0   -2189.3481     16459.55     4382.646 
   59480    280.56461   -2530.1485            0   -2196.4609    16231.882    4387.4314 
   59500    276.26947   -2530.6862            0    -2202.107    15983.154    4393.5222 
   59520    273.69597   -2531.1952            0   -2205.6768    15726.756    4400.7154 
   59540    273.00857   -2531.6493            0   -2206.9484    15473.026    4408.7629 
   59560    274.29173   -2532.0292            0   -2205.8022    15231.757    4417.3797 
   59580    277.69559   -2532.3255            0   -2202.0501    15013.494    4426.2546 
   59600    283.35045    -2532.541            0   -2195.5401     14828.12    4435.0627 
   59620    290.88189   -2532.6906            0   -2186.7322    14678.726    4443.4785 
   59640    298.82583   -2532.7991            0   -2177.3926    14554.553    4451.1883 
   59660    305.23606   -2532.8975            0    -2169.867     14438.64     4457.902 
   59680    309.24538   -2533.0202            0   -2165.2213    14335.127    4463.3633 
   59700    311.25164   -2533.2009            0   -2163.0158     14249.65    4467.3693 
   59720    311.91676   -2533.4639            0   -2162.4878    14185.726    4469.7737 
   59740    311.63795   -2533.8247            0   -2163.1802    14149.199    4470.4817 
   59760    310.59635   -2534.2884            0   -2164.8828    14142.902    4469.4518 
   59780    308.89605   -2534.8485            0   -2167.4651    14168.374    4466.6973 
   59800     306.6445   -2535.4871            0   -2170.7816    14226.851    4462.2876 
   59820    303.98603   -2536.1752            0   -2174.6314    14331.385    4456.3512 
   59840    301.10596   -2536.8735            0   -2178.7552     14471.92     4449.087 
   59860    298.21421   -2537.5431            0   -2182.8641    14642.003    4440.7534 
   59880    295.51743   -2538.1489            0   -2186.6772    14837.441     4431.653 
   59900     293.1929   -2538.6646            0   -2189.9576    15052.869     4422.122 
   59920    291.37497   -2539.0765            0   -2192.5317     15281.38    4412.5174 
   59940     290.1572   -2539.3859            0   -2194.2894    15514.541    4403.2024 
   59960    289.60673    -2539.609            0   -2195.1672    15742.811    4394.5315 
   59980    289.78715   -2539.7746            0   -2195.1182    15956.305    4386.8354 
   60000    290.78908   -2539.9201            0   -2194.0721    16145.843    4380.4078 
Loop time of 263.669 on 1 procs for 60000 steps with 400 atoms

Performance: 0.010 ns/day, 2441.376 hours/ns, 227.558 timesteps/s
99.9% CPU use with 1 MPI tasks x 1 OpenMP threads

MPI task timing breakdown:
Section |  min time  |  avg time  |  max time  |%varavg| %total
---------------------------------------------------------------
Pair    | 261.3      | 261.3      | 261.3      |   0.0 | 99.10
Neigh   | 0.0033243  | 0.0033243  | 0.0033243  |   0.0 |  0.00
Comm    | 0.2084     | 0.2084     | 0.2084     |   0.0 |  0.08
Output  | 0.10989    | 0.10989    | 0.10989    |   0.0 |  0.04
Modify  | 1.801      | 1.801      | 1.801      |   0.0 |  0.68
Other   |            | 0.2447     |            |       |  0.09

Nlocal:    400 ave 400 max 400 min
Histogram: 1 0 0 0 0 0 0 0 0 0
Nghost:    400 ave 400 max 400 min
Histogram: 1 0 0 0 0 0 0 0 0 0
Neighs:    0 ave 0 max 0 min
Histogram: 1 0 0 0 0 0 0 0 0 0
FullNghs:  60362 ave 60362 max 60362 min
Histogram: 1 0 0 0 0 0 0 0 0 0

Total # of neighbors = 60362
Ave neighs/atom = 150.905
Neighbor list builds = 2
Dangerous builds = 0
##—————RUNNING-DEFORMATION————————————–
unfix 1
fix 1 all nvt temp 300 300 0.05
fix 2 all ave/atom 1 1000 1000 c 1[1] c 1[2] c 1[3] c 2 fx fy fz
ERROR: Illegal fix ave/atom command (../fix_ave_atom.cpp:113)
