    -----------------------------------------------------------------------
          Psi4: An Open-Source Ab Initio Electronic Structure Package
                              Psi4 1.0.0 Driver

                          Git: Rev {master} 6a9a71b 

    J. M. Turney, A. C. Simmonett, R. M. Parrish, E. G. Hohenstein,
    F. A. Evangelista, J. T. Fermann, B. J. Mintz, L. A. Burns, J. J. Wilke,
    M. L. Abrams, N. J. Russ, M. L. Leininger, C. L. Janssen, E. T. Seidl,
    W. D. Allen, H. F. Schaefer, R. A. King, E. F. Valeev, C. D. Sherrill,
    and T. D. Crawford, WIREs Comput. Mol. Sci. 2, 556-565 (2012)
    (doi: 10.1002/wcms.93)

                         Additional Contributions by
    A. E. DePrince, U. Bozkaya, A. Yu. Sokolov, D. G. A. Smith, R. Di Remigio,
    R. M. Richard, J. F. Gonthier, H. R. McAlexander, M. Saitow, and
    B. P. Pritchard
    -----------------------------------------------------------------------


    Psi4 started on: Mon Jan 30 15:06:23 2017

    Process ID:   4548
    PSI4DATADIR: /Users/equipo/miniconda/share/psi4
    Memory level set to 256.000 MB

  ==> Input File <==

--------------------------------------------------------------------------
memory 250 mb

molecule co2 {
  C 
  O 1 0.96
  O 1 1.20 2 90
}

set basis cc-pVDZ

op, wfn = optimize('hf', return_wfn=True, molecule=co2)
molden(wfn, "op.molden", density_a=wfn.Da())
--------------------------------------------------------------------------

  Memory set to 250.000 MiB by Python script.
gradient() will perform analytic gradient computation.
    There are an even number of electrons - assuming singlet.
    Specify the multiplicity in the molecule input block.


*** tstart() called on Takums-iMac.local
*** at Mon Jan 30 15:06:27 2017


         ---------------------------------------------------------
                                   SCF
            by Justin Turney, Rob Parrish, and Andy Simmonett
                              RHF Reference
                        1 Threads,    250 MiB Core
         ---------------------------------------------------------

  ==> Geometry <==

    Molecular point group: cs
    Full point group: Cs

    Geometry (in Angstrom), charge = 0, multiplicity = 1:

       Center              X                  Y                   Z               Mass       
    ------------   -----------------  -----------------  -----------------  -----------------
           C          0.436325802474     0.349060641980     0.000000000000    12.000000000000
           O          0.436325802474    -0.610939358020     0.000000000000    15.994914619560
           O         -0.763674197526     0.349060641980     0.000000000000    15.994914619560

  Running in cs symmetry.

  Rotational constants: A =      3.49828  B =      0.87708  C =      0.70126 [cm^-1]
  Rotational constants: A = 104875.70378  B =  26294.30664  C =  21023.35668 [MHz]
  Nuclear repulsion =   69.664240872089849

  Charge       = 0
  Multiplicity = 1
  Electrons    = 22
  Nalpha       = 11
  Nbeta        = 11

  ==> Algorithm <==

  SCF Algorithm Type is DF.
  DIIS enabled.
  MOM disabled.
  Fractional occupation disabled.
  Guess Type is SAD.
  Energy threshold   = 1.00e-08
  Density threshold  = 1.00e-08
  Integral threshold = 0.00e+00

  ==> Primary Basis <==

  Basis Set: CC-PVDZ
    Number of shells: 18
    Number of basis function: 42
    Number of Cartesian functions: 45
    Spherical Harmonics?: true
    Max angular momentum: 2

  ==> Pre-Iterations <==

   -------------------------------------------------------
    Irrep   Nso     Nmo     Nalpha   Nbeta   Ndocc  Nsocc
   -------------------------------------------------------
     A'        30      30       0       0       0       0
     A"        12      12       0       0       0       0
   -------------------------------------------------------
    Total      42      42      11      11      11       0
   -------------------------------------------------------

  ==> Integral Setup <==

  ==> DFJK: Density-Fitted J/K Matrices <==

    J tasked:                  Yes
    K tasked:                  Yes
    wK tasked:                  No
    OpenMP threads:              1
    Integrals threads:           1
    Memory (MB):               178
    Algorithm:                Core
    Integral Cache:           NONE
    Schwarz Cutoff:          1E-12
    Fitting Condition:       1E-12

   => Auxiliary Basis Set <=

  Basis Set: 
    Number of shells: 72
    Number of basis function: 210
    Number of Cartesian functions: 243
    Spherical Harmonics?: true
    Max angular momentum: 3

  Minimum eigenvalue in the overlap matrix is 1.4515571457E-02.
  Using Symmetric Orthogonalization.
  SCF Guess: Superposition of Atomic Densities via on-the-fly atomic UHF.

  ==> Iterations <==

                           Total Energy        Delta E     RMS |[F,P]|

   @DF-RHF iter   0:  -188.87069308197761   -1.88871e+02   1.26926e-01 
   @DF-RHF iter   1:  -187.09789854951839    1.77279e+00   1.21264e-02 
   @DF-RHF iter   2:  -187.13013013622322   -3.22316e-02   9.44909e-03 DIIS
   @DF-RHF iter   3:  -187.16386073226755   -3.37306e-02   1.50216e-03 DIIS
   @DF-RHF iter   4:  -187.16529415685108   -1.43342e-03   4.44014e-04 DIIS
   @DF-RHF iter   5:  -187.16559530002974   -3.01143e-04   2.79434e-04 DIIS
   @DF-RHF iter   6:  -187.16574327737180   -1.47977e-04   1.85070e-04 DIIS
   @DF-RHF iter   7:  -187.16588229792904   -1.39021e-04   1.19338e-04 DIIS
   @DF-RHF iter   8:  -187.16593767329300   -5.53754e-05   5.37061e-05 DIIS
   @DF-RHF iter   9:  -187.16594972194105   -1.20486e-05   1.59927e-05 DIIS
   @DF-RHF iter  10:  -187.16595079749624   -1.07556e-06   2.88385e-06 DIIS
   @DF-RHF iter  11:  -187.16595082671608   -2.92198e-08   8.51443e-07 DIIS
   @DF-RHF iter  12:  -187.16595082832350   -1.60742e-09   2.52676e-07 DIIS
   @DF-RHF iter  13:  -187.16595082845595   -1.32445e-10   7.47944e-08 DIIS
   @DF-RHF iter  14:  -187.16595082846084   -4.88853e-12   3.76231e-08 DIIS
   @DF-RHF iter  15:  -187.16595082846311   -2.27374e-12   1.22922e-08 DIIS
   @DF-RHF iter  16:  -187.16595082846334   -2.27374e-13   1.66699e-09 DIIS

  ==> Post-Iterations <==

    Orbital Energies (a.u.)
    -----------------------

    Doubly Occupied:                                                      

       1Ap   -20.756696     2Ap   -20.642486     3Ap   -11.351948  
       4Ap    -1.817112     5Ap    -1.378714     6Ap    -0.903301  
       1App   -0.856323     7Ap    -0.764383     8Ap    -0.722227  
       2App   -0.542410     9Ap    -0.389871  

    Virtual:                                                              

      10Ap     0.047760     3App    0.232284    11Ap     0.389849  
      12Ap     0.414667     4App    0.628696    13Ap     0.704160  
      14Ap     0.833643    15Ap     0.956739    16Ap     1.052571  
       5App    1.127811    17Ap     1.140555     6App    1.227457  
      18Ap     1.290738    19Ap     1.365468     7App    1.434674  
       8App    1.645668    20Ap     1.744372    21Ap     1.918037  
      22Ap     1.968748    23Ap     2.134305    24Ap     2.707727  
       9App    2.770653    25Ap     2.840110    26Ap     3.008288  
      10App    3.073037    11App    3.365771    12App    3.546311  
      27Ap     3.622390    28Ap     3.682020    29Ap     3.856563  
      30Ap     4.169995  

    Final Occupation by Irrep:
             Ap   App 
    DOCC [     9,    2 ]

  Energy converged.

  @DF-RHF Final Energy:  -187.16595082846334

   => Energetics <=

    Nuclear Repulsion Energy =             69.6642408720898487
    One-Electron Energy =                -393.4094431085750330
    Two-Electron Energy =                 136.5792514080218325
    DFT Exchange-Correlation Energy =       0.0000000000000000
    Empirical Dispersion Energy =           0.0000000000000000
    PCM Polarization Energy =               0.0000000000000000
    EFP Energy =                            0.0000000000000000
    Total Energy =                       -187.1659508284633375


  Saving occupied orbitals to File 180.

*** tstop() called on Takums-iMac.local at Mon Jan 30 15:06:28 2017
Module time:
	user time   =       0.55 seconds =       0.01 minutes
	system time =       0.03 seconds =       0.00 minutes
	total time  =          1 seconds =       0.02 minutes
Total time:
	user time   =       0.55 seconds =       0.01 minutes
	system time =       0.03 seconds =       0.00 minutes
	total time  =          1 seconds =       0.02 minutes


Properties will be evaluated at   0.000000,   0.000000,   0.000000 Bohr

Properties computed using the SCF density matrix

  Nuclear Dipole Moment: (a.u.)
     X:    -0.0016      Y:    -0.0013      Z:     0.0000

  Electronic Dipole Moment: (a.u.)
     X:     0.2975      Y:    -0.3805      Z:     0.0000

  Dipole Moment: (a.u.)
     X:     0.2959      Y:    -0.3818      Z:     0.0000     Total:     0.4830

  Dipole Moment: (Debye)
     X:     0.7521      Y:    -0.9703      Z:     0.0000     Total:     1.2277


*** tstart() called on Takums-iMac.local
*** at Mon Jan 30 15:06:28 2017


         ------------------------------------------------------------
                                   SCF GRAD                          
                          Rob Parrish, Justin Turney,                
                       Andy Simmonett, and Alex Sokolov              
         ------------------------------------------------------------

  ==> Geometry <==

    Molecular point group: cs
    Full point group: Cs

    Geometry (in Angstrom), charge = 0, multiplicity = 1:

       Center              X                  Y                   Z               Mass       
    ------------   -----------------  -----------------  -----------------  -----------------
           C          0.436325802474     0.349060641980     0.000000000000    12.000000000000
           O          0.436325802474    -0.610939358020     0.000000000000    15.994914619560
           O         -0.763674197526     0.349060641980     0.000000000000    15.994914619560

  Nuclear repulsion =   69.664240872089849

  ==> Basis Set <==

  Basis Set: CC-PVDZ
    Number of shells: 18
    Number of basis function: 42
    Number of Cartesian functions: 45
    Spherical Harmonics?: true
    Max angular momentum: 2

  ==> DFJKGrad: Density-Fitted SCF Gradients <==

    Gradient:                    1
    J tasked:                  Yes
    K tasked:                  Yes
    wK tasked:                  No
    OpenMP threads:              1
    Integrals threads:           1
    Memory (MB):               178
    Schwarz Cutoff:          0E+00
    Fitting Condition:       1E-12

   => Auxiliary Basis Set <=

  Basis Set: 
    Number of shells: 72
    Number of basis function: 210
    Number of Cartesian functions: 243
    Spherical Harmonics?: true
    Max angular momentum: 3


  -Total Gradient:
     Atom            X                  Y                   Z
    ------   -----------------  -----------------  -----------------
       1       -0.307904278996    -0.923999662365     0.000000000000
       2       -0.019243025933     0.939394081276     0.000000000000
       3        0.327147304930    -0.015394418909     0.000000000000


*** tstop() called on Takums-iMac.local at Mon Jan 30 15:06:29 2017
Module time:
	user time   =       0.67 seconds =       0.01 minutes
	system time =       0.02 seconds =       0.00 minutes
	total time  =          1 seconds =       0.02 minutes
Total time:
	user time   =       1.23 seconds =       0.02 minutes
	system time =       0.05 seconds =       0.00 minutes
	total time  =          2 seconds =       0.03 minutes

			-----------------------------------------
			 OPTKING 2.0: for geometry optimizations 
			  - R.A. King,  Bethel University        
			-----------------------------------------

	Internal coordinates to be generated automatically.
	Detected frag 1 with atoms:  1 2 3
	---Fragment 1 Bond Connectivity---
	 1 : 2 3
	 2 : 1 3
	 3 : 1 2

	---Fragment 1 Geometry and Gradient---
	 C           0.8245362714        0.6596290171        0.0000000000
	 O           0.8245362714       -1.1545080705        0.0000000000
	 O          -1.4431350881        0.6596290171        0.0000000000
	            -0.3079042790       -0.9239996624        0.0000000000
	            -0.0192430259        0.9393940813        0.0000000000
	             0.3271473049       -0.0153944189        0.0000000000

	Previous optimization step data not found.  Starting new optimization.

	---Fragment 1 Intrafragment Coordinates---
	 - Coordinate -           - BOHR/RAD -       - ANG/DEG -
	 R(1,2)           =         1.814137	       0.960000
	 R(1,3)           =         2.267671	       1.200000
	 R(2,3)           =         2.904036	       1.536750
	 B(1,2,3)         =         0.896055	      51.340192
	 B(1,3,2)         =         0.674741	      38.659808
	 B(2,1,3)         =         1.570796	      90.000000

	Current energy   :      -187.1659508285

	Generating empirical Hessian (Schlegel '84) for each fragment.
	Taking RFO optimization step.
	Going to follow RFO solution 1.
	Using RFO vector 1.
	Norm of target step-size    0.33652
	Projected energy change by RFO approximation:        -0.2130784499

	Back-transformation to cartesian coordinates...
	Successfully converged to displaced geometry.

	--- Internal Coordinate Step in ANG or DEG, aJ/ANG or AJ/DEG ---
	 ---------------------------------------------------------------------------
	   Coordinate                Previous        Force       Change         New 
	   ----------                --------       ------       ------       ------
	    1 R(1,2)          =      0.960000     5.870185     0.101682     1.061682
	    2 R(1,3)          =      1.200000     1.506832     0.111438     1.311438
	    3 R(2,3)          =      1.536750     2.095712     0.072941     1.609691
	    4 B(1,2,3)        =     51.340192    -0.000660     2.879600    54.219792
	    5 B(1,3,2)        =     38.659808     0.018576     2.393795    41.053603
	    6 B(2,1,3)        =     90.000000    -0.017916    -5.273395    84.726605
	 ---------------------------------------------------------------------------

  ==> Convergence Check <==

  Measures of convergence in internal coordinates in au.
  Criteria marked as inactive (o), active & met (*), and active & unmet ( ).
  --------------------------------------------------------------------------------------------- ~
   Step     Total Energy     Delta E     MAX Force     RMS Force      MAX Disp      RMS Disp    ~
  --------------------------------------------------------------------------------------------- ~
    Convergence Criteria    1.00e-06 *    3.00e-04 *             o    1.20e-03 *             o  ~
  --------------------------------------------------------------------------------------------- ~
      1    -187.16595083   -1.87e+02      7.13e-01      3.47e-01 o    2.11e-01      1.37e-01 o  ~
  ---------------------------------------------------------------------------------------------

	Writing optimization data to binary file.
	Structure for next step:
	Cartesian Geometry (in Angstrom)
	    C     0.4919259982   0.3994699763   0.0000000000
	    O     0.4355697191  -0.6607152212   0.0000000000
	    O    -0.8185183099   0.3484271708   0.0000000000
			--------------------------
			 OPTKING Finished Execution 
			--------------------------

    Structure for next step:
    Molecular point group: cs
    Full point group: Cs

    Geometry (in Angstrom), charge = 0, multiplicity = 1:

    C       
    O             1    1.061682
    O             1    1.311438      2   84.726605

gradient() will perform analytic gradient computation.

*** tstart() called on Takums-iMac.local
*** at Mon Jan 30 15:06:29 2017


         ---------------------------------------------------------
                                   SCF
            by Justin Turney, Rob Parrish, and Andy Simmonett
                              RHF Reference
                        1 Threads,    250 MiB Core
         ---------------------------------------------------------

  ==> Geometry <==

    Molecular point group: cs
    Full point group: Cs

    Geometry (in Angstrom), charge = 0, multiplicity = 1:

       Center              X                  Y                   Z               Mass       
    ------------   -----------------  -----------------  -----------------  -----------------
           C          0.474826945625     0.429858707499     0.000000000000    12.000000000000
           O          0.474826945625    -0.631823299154     0.000000000000    15.994914619560
           O         -0.831060378752     0.309326767433     0.000000000000    15.994914619560

  Running in cs symmetry.

  Rotational constants: A =      2.65756  B =      0.79711  C =      0.61319 [cm^-1]
  Rotational constants: A =  79671.66776  B =  23896.66716  C =  18382.90949 [MHz]
  Nuclear repulsion =   64.332869537290733

  Charge       = 0
  Multiplicity = 1
  Electrons    = 22
  Nalpha       = 11
  Nbeta        = 11

  ==> Algorithm <==

  SCF Algorithm Type is DF.
  DIIS enabled.
  MOM disabled.
  Fractional occupation disabled.
  Guess Type is READ.
  Energy threshold   = 1.00e-08
  Density threshold  = 1.00e-08
  Integral threshold = 0.00e+00

  ==> Primary Basis <==

  Basis Set: CC-PVDZ
    Number of shells: 18
    Number of basis function: 42
    Number of Cartesian functions: 45
    Spherical Harmonics?: true
    Max angular momentum: 2

  ==> Pre-Iterations <==

   -------------------------------------------------------
    Irrep   Nso     Nmo     Nalpha   Nbeta   Ndocc  Nsocc
   -------------------------------------------------------
     A'        30      30       0       0       0       0
     A"        12      12       0       0       0       0
   -------------------------------------------------------
    Total      42      42      11      11      11       0
   -------------------------------------------------------

  ==> Integral Setup <==

  ==> DFJK: Density-Fitted J/K Matrices <==

    J tasked:                  Yes
    K tasked:                  Yes
    wK tasked:                  No
    OpenMP threads:              1
    Integrals threads:           1
    Memory (MB):               178
    Algorithm:                Core
    Integral Cache:           NONE
    Schwarz Cutoff:          1E-12
    Fitting Condition:       1E-12

   => Auxiliary Basis Set <=

  Basis Set: 
    Number of shells: 72
    Number of basis function: 210
    Number of Cartesian functions: 243
    Spherical Harmonics?: true
    Max angular momentum: 3

  Minimum eigenvalue in the overlap matrix is 1.6360882304E-02.
  Using Symmetric Orthogonalization.
  SCF Guess: Reading in previously saved MOs, projecting if necessary.

  Using orbitals from previous SCF, no projection.
  Recomputing DOCC and SOCC from number of alpha and beta electrons from previous calculation.
             Ap   App 
    DOCC [     9,    2 ]

  ==> Iterations <==

                           Total Energy        Delta E     RMS |[F,P]|

   @DF-RHF iter   0:  -187.11991503189586   -1.87120e+02   2.22370e-02 
   @DF-RHF iter   1:  -187.32526711094516   -2.05352e-01   2.35602e-03 
   @DF-RHF iter   2:  -187.32845618271114   -3.18907e-03   1.29556e-03 DIIS
   @DF-RHF iter   3:  -187.32943160155833   -9.75419e-04   6.15720e-04 DIIS
   @DF-RHF iter   4:  -187.32986547754746   -4.33876e-04   2.81583e-04 DIIS
   @DF-RHF iter   5:  -187.33014743167166   -2.81954e-04   2.26006e-04 DIIS
   @DF-RHF iter   6:  -187.33027722340785   -1.29792e-04   1.25248e-04 DIIS
   @DF-RHF iter   7:  -187.33034944419916   -7.22208e-05   7.00721e-05 DIIS
   @DF-RHF iter   8:  -187.33037140272165   -2.19585e-05   2.19524e-05 DIIS
   @DF-RHF iter   9:  -187.33037354461976   -2.14190e-06   8.08883e-06 DIIS
   @DF-RHF iter  10:  -187.33037379619958   -2.51580e-07   2.01364e-06 DIIS
   @DF-RHF iter  11:  -187.33037380850766   -1.23081e-08   6.28721e-07 DIIS
   @DF-RHF iter  12:  -187.33037380958444   -1.07678e-09   2.21346e-07 DIIS
   @DF-RHF iter  13:  -187.33037380970848   -1.24032e-10   3.84821e-08 DIIS
   @DF-RHF iter  14:  -187.33037380971149   -3.01270e-12   7.26203e-09 DIIS

  ==> Post-Iterations <==

    Orbital Energies (a.u.)
    -----------------------

    Doubly Occupied:                                                      

       1Ap   -20.749766     2Ap   -20.689585     3Ap   -11.366881  
       4Ap    -1.725404     5Ap    -1.345537     6Ap    -0.889874  
       1App   -0.791441     7Ap    -0.722955     8Ap    -0.701659  
       2App   -0.558162     9Ap    -0.424978  

    Virtual:                                                              

      10Ap     0.032600     3App    0.181800    11Ap     0.352008  
      12Ap     0.416316     4App    0.648227    13Ap     0.708979  
      14Ap     0.743396    15Ap     0.977850    16Ap     1.056085  
      17Ap     1.120488     5App    1.152336     6App    1.193745  
      18Ap     1.193844    19Ap     1.335528     7App    1.407292  
       8App    1.569054    20Ap     1.572908    21Ap     1.889771  
      22Ap     1.953439    23Ap     2.002432    24Ap     2.469945  
       9App    2.759954    25Ap     2.768388    26Ap     2.932226  
      10App    3.015625    11App    3.227435    12App    3.443141  
      27Ap     3.468724    28Ap     3.533250    29Ap     3.752260  
      30Ap     3.970451  

    Final Occupation by Irrep:
             Ap   App 
    DOCC [     9,    2 ]

  Energy converged.

  @DF-RHF Final Energy:  -187.33037380971149

   => Energetics <=

    Nuclear Repulsion Energy =             64.3328695372907333
    One-Electron Energy =                -383.3940044542009673
    Two-Electron Energy =                 131.7307611071987594
    DFT Exchange-Correlation Energy =       0.0000000000000000
    Empirical Dispersion Energy =           0.0000000000000000
    PCM Polarization Energy =               0.0000000000000000
    EFP Energy =                            0.0000000000000000
    Total Energy =                       -187.3303738097114888


  Saving occupied orbitals to File 180.

*** tstop() called on Takums-iMac.local at Mon Jan 30 15:06:29 2017
Module time:
	user time   =       0.35 seconds =       0.01 minutes
	system time =       0.02 seconds =       0.00 minutes
	total time  =          0 seconds =       0.00 minutes
Total time:
	user time   =       1.67 seconds =       0.03 minutes
	system time =       0.07 seconds =       0.00 minutes
	total time  =          2 seconds =       0.03 minutes


Properties will be evaluated at   0.000000,   0.000000,   0.000000 Bohr

Properties computed using the SCF density matrix

  Nuclear Dipole Moment: (a.u.)
     X:    -0.0017      Y:    -0.0015      Z:     0.0000

  Electronic Dipole Moment: (a.u.)
     X:     0.1366      Y:    -0.2418      Z:     0.0000

  Dipole Moment: (a.u.)
     X:     0.1349      Y:    -0.2434      Z:     0.0000     Total:     0.2783

  Dipole Moment: (Debye)
     X:     0.3430      Y:    -0.6186      Z:     0.0000     Total:     0.7073


*** tstart() called on Takums-iMac.local
*** at Mon Jan 30 15:06:29 2017


         ------------------------------------------------------------
                                   SCF GRAD                          
                          Rob Parrish, Justin Turney,                
                       Andy Simmonett, and Alex Sokolov              
         ------------------------------------------------------------

  ==> Geometry <==

    Molecular point group: cs
    Full point group: Cs

    Geometry (in Angstrom), charge = 0, multiplicity = 1:

       Center              X                  Y                   Z               Mass       
    ------------   -----------------  -----------------  -----------------  -----------------
           C          0.474826945625     0.429858707499     0.000000000000    12.000000000000
           O          0.474826945625    -0.631823299154     0.000000000000    15.994914619560
           O         -0.831060378752     0.309326767433     0.000000000000    15.994914619560

  Nuclear repulsion =   64.332869537290748

  ==> Basis Set <==

  Basis Set: CC-PVDZ
    Number of shells: 18
    Number of basis function: 42
    Number of Cartesian functions: 45
    Spherical Harmonics?: true
    Max angular momentum: 2

  ==> DFJKGrad: Density-Fitted SCF Gradients <==

    Gradient:                    1
    J tasked:                  Yes
    K tasked:                  Yes
    wK tasked:                  No
    OpenMP threads:              1
    Integrals threads:           1
    Memory (MB):               178
    Schwarz Cutoff:          0E+00
    Fitting Condition:       1E-12

   => Auxiliary Basis Set <=

  Basis Set: 
    Number of shells: 72
    Number of basis function: 210
    Number of Cartesian functions: 243
    Spherical Harmonics?: true
    Max angular momentum: 3


  -Total Gradient:
     Atom            X                  Y                   Z
    ------   -----------------  -----------------  -----------------
       1       -0.139886176745    -0.395577834285     0.000000000000
       2        0.033851289470     0.358269954475     0.000000000000
       3        0.106034887274     0.037307879810     0.000000000000


*** tstop() called on Takums-iMac.local at Mon Jan 30 15:06:30 2017
Module time:
	user time   =       0.68 seconds =       0.01 minutes
	system time =       0.02 seconds =       0.00 minutes
	total time  =          1 seconds =       0.02 minutes
Total time:
	user time   =       2.36 seconds =       0.04 minutes
	system time =       0.09 seconds =       0.00 minutes
	total time  =          3 seconds =       0.05 minutes

			-----------------------------------------
			 OPTKING 2.0: for geometry optimizations 
			  - R.A. King,  Bethel University        
			-----------------------------------------

	Previous internal coordinate definitions found.
	---Fragment 1 Geometry and Gradient---
	 C           0.8972928877        0.8123152330        0.0000000000
	 O           0.8972928877       -1.1939729998        0.0000000000
	 O          -1.5704765157        0.5845428760        0.0000000000
	            -0.1398861767       -0.3955778343        0.0000000000
	             0.0338512895        0.3582699545        0.0000000000
	             0.1060348873        0.0373078798        0.0000000000

	---Fragment 1 Intrafragment Coordinates---
	 - Coordinate -           - BOHR/RAD -       - ANG/DEG -
	 R(1,2)           =         2.006288	       1.061682
	 R(1,3)           =         2.478259	       1.311438
	 R(2,3)           =         3.041875	       1.609691
	 B(1,2,3)         =         0.946314	      54.219792
	 B(1,3,2)         =         0.716521	      41.053603
	 B(2,1,3)         =         1.478758	      84.726605

	Current energy   :      -187.3303738097

	Energy change for the previous step:
		Projected    :        -0.2130784499
		Actual       :        -0.1644229812
	Energy ratio indicates good step: Trust radius increased to 1.000e+00.


	Performing BFGS update.
	Previous computed or guess Hessian on step 1.
	Steps to be used in Hessian update: 1
	Taking RFO optimization step.
	Going to follow RFO solution 1.
	Using RFO vector 1.
	Norm of target step-size    0.33491
	Projected energy change by RFO approximation:        -0.0859698585

	Back-transformation to cartesian coordinates...
	Successfully converged to displaced geometry.

	--- Internal Coordinate Step in ANG or DEG, aJ/ANG or AJ/DEG ---
	 ---------------------------------------------------------------------------
	   Coordinate                Previous        Force       Change         New 
	   ----------                --------       ------       ------       ------
	    1 R(1,2)          =      1.061682     2.469559     0.083138     1.144820
	    2 R(1,3)          =      1.311438     0.719899     0.091079     1.402517
	    3 R(2,3)          =      1.609691     0.463210    -0.052156     1.557535
	    4 B(1,2,3)        =     54.219792     0.000664     6.032627    60.252419
	    5 B(1,3,2)        =     41.053603     0.007981     4.075151    45.128754
	    6 B(2,1,3)        =     84.726605    -0.008645   -10.107778    74.618827
	 ---------------------------------------------------------------------------

  ==> Convergence Check <==

  Measures of convergence in internal coordinates in au.
  Criteria marked as inactive (o), active & met (*), and active & unmet ( ).
  ---------------------------------------------------------------------------------------------
   Step     Total Energy     Delta E     MAX Force     RMS Force      MAX Disp      RMS Disp   
  ---------------------------------------------------------------------------------------------
    Convergence Criteria    1.00e-06 *    3.00e-04 *             o    1.20e-03 *             o
  ---------------------------------------------------------------------------------------------
      2    -187.33037381   -1.64e-01      3.00e-01      1.44e-01 o    1.76e-01      1.36e-01 o  ~
  ---------------------------------------------------------------------------------------------

	Writing optimization data to binary file.
	Structure for next step:
	Cartesian Geometry (in Angstrom)
	    C     0.5411196642   0.4910162104   0.0000000000
	    O     0.4203370533  -0.6474144352   0.0000000000
	    O    -0.8428632050   0.2637604005   0.0000000000
			--------------------------
			 OPTKING Finished Execution 
			--------------------------

    Structure for next step:
    Molecular point group: cs
    Full point group: Cs

    Geometry (in Angstrom), charge = 0, multiplicity = 1:

    C       
    O             1    1.144820
    O             1    1.402517      2   74.618827

gradient() will perform analytic gradient computation.

*** tstart() called on Takums-iMac.local
*** at Mon Jan 30 15:06:30 2017


         ---------------------------------------------------------
                                   SCF
            by Justin Turney, Rob Parrish, and Andy Simmonett
                              RHF Reference
                        1 Threads,    250 MiB Core
         ---------------------------------------------------------

  ==> Geometry <==

    Molecular point group: cs
    Full point group: Cs

    Geometry (in Angstrom), charge = 0, multiplicity = 1:

       Center              X                  Y                   Z               Mass       
    ------------   -----------------  -----------------  -----------------  -----------------
           C          0.491696438091     0.551524033885     0.000000000000    12.000000000000
           O          0.491696438091    -0.593295940620     0.000000000000    15.994914619560
           O         -0.860586013148     0.179521402648     0.000000000000    15.994914619560

  Running in cs symmetry.

  Rotational constants: A =      2.02378  B =      0.83951  C =      0.59337 [cm^-1]
  Rotational constants: A =  60671.37603  B =  25167.98834  C =  17788.76737 [MHz]
  Nuclear repulsion =   62.042191804784295

  Charge       = 0
  Multiplicity = 1
  Electrons    = 22
  Nalpha       = 11
  Nbeta        = 11

  ==> Algorithm <==

  SCF Algorithm Type is DF.
  DIIS enabled.
  MOM disabled.
  Fractional occupation disabled.
  Guess Type is READ.
  Energy threshold   = 1.00e-08
  Density threshold  = 1.00e-08
  Integral threshold = 0.00e+00

  ==> Primary Basis <==

  Basis Set: CC-PVDZ
    Number of shells: 18
    Number of basis function: 42
    Number of Cartesian functions: 45
    Spherical Harmonics?: true
    Max angular momentum: 2

  ==> Pre-Iterations <==

   -------------------------------------------------------
    Irrep   Nso     Nmo     Nalpha   Nbeta   Ndocc  Nsocc
   -------------------------------------------------------
     A'        30      30       0       0       0       0
     A"        12      12       0       0       0       0
   -------------------------------------------------------
    Total      42      42      11      11      11       0
   -------------------------------------------------------

  ==> Integral Setup <==

  ==> DFJK: Density-Fitted J/K Matrices <==

    J tasked:                  Yes
    K tasked:                  Yes
    wK tasked:                  No
    OpenMP threads:              1
    Integrals threads:           1
    Memory (MB):               178
    Algorithm:                Core
    Integral Cache:           NONE
    Schwarz Cutoff:          1E-12
    Fitting Condition:       1E-12

   => Auxiliary Basis Set <=

  Basis Set: 
    Number of shells: 72
    Number of basis function: 210
    Number of Cartesian functions: 243
    Spherical Harmonics?: true
    Max angular momentum: 3

  Minimum eigenvalue in the overlap matrix is 1.8299086487E-02.
  Using Symmetric Orthogonalization.
  SCF Guess: Reading in previously saved MOs, projecting if necessary.

  Using orbitals from previous SCF, no projection.
  Recomputing DOCC and SOCC from number of alpha and beta electrons from previous calculation.
             Ap   App 
    DOCC [     9,    2 ]

  ==> Iterations <==

                           Total Energy        Delta E     RMS |[F,P]|

   @DF-RHF iter   0:  -187.20155406512731   -1.87202e+02   1.62225e-02 
   @DF-RHF iter   1:  -187.38169631786954   -1.80142e-01   2.93877e-03 
   @DF-RHF iter   2:  -187.38610407188816   -4.40775e-03   1.79850e-03 DIIS
   @DF-RHF iter   3:  -187.38747011172885   -1.36604e-03   5.55811e-04 DIIS
   @DF-RHF iter   4:  -187.38774134523123   -2.71234e-04   2.49800e-04 DIIS
   @DF-RHF iter   5:  -187.38781067984382   -6.93346e-05   7.98917e-05 DIIS
   @DF-RHF iter   6:  -187.38782018664315   -9.50680e-06   3.53112e-05 DIIS
   @DF-RHF iter   7:  -187.38782301991026   -2.83327e-06   1.16348e-05 DIIS
   @DF-RHF iter   8:  -187.38782334494243   -3.25032e-07   3.36842e-06 DIIS
   @DF-RHF iter   9:  -187.38782337278107   -2.78386e-08   1.28378e-06 DIIS
   @DF-RHF iter  10:  -187.38782337689764   -4.11657e-09   5.01109e-07 DIIS
   @DF-RHF iter  11:  -187.38782337756282   -6.65182e-10   2.20292e-07 DIIS
   @DF-RHF iter  12:  -187.38782337773648   -1.73657e-10   9.40102e-08 DIIS
   @DF-RHF iter  13:  -187.38782337777079   -3.43050e-11   2.94141e-08 DIIS
   @DF-RHF iter  14:  -187.38782337777343   -2.64322e-12   5.57102e-09 DIIS

  ==> Post-Iterations <==

    Orbital Energies (a.u.)
    -----------------------

    Doubly Occupied:                                                      

       1Ap   -20.738143     2Ap   -20.700107     3Ap   -11.396335  
       4Ap    -1.682215     5Ap    -1.302146     6Ap    -0.889126  
       1App   -0.759183     7Ap    -0.697190     8Ap    -0.669641  
       2App   -0.547562     9Ap    -0.467411  

    Virtual:                                                              

      10Ap     0.085161     3App    0.136831    11Ap     0.289288  
      12Ap     0.409725     4App    0.655575    13Ap     0.670480  
      14Ap     0.734624    15Ap     0.946493    16Ap     1.014305  
      17Ap     1.102541     5App    1.161455     6App    1.180719  
      18Ap     1.210252    19Ap     1.318296     7App    1.399534  
      20Ap     1.440861     8App    1.511031    21Ap     1.856999  
      22Ap     1.990990    23Ap     2.022840    24Ap     2.280129  
      25Ap     2.667670     9App    2.698275    26Ap     2.960965  
      10App    3.046192    11App    3.156054    27Ap     3.288278  
      12App    3.366790    28Ap     3.473626    29Ap     3.809491  
      30Ap     3.882104  

    Final Occupation by Irrep:
             Ap   App 
    DOCC [     9,    2 ]

  Energy converged.

  @DF-RHF Final Energy:  -187.38782337777343

   => Energetics <=

    Nuclear Repulsion Energy =             62.0421918047842951
    One-Electron Energy =                -379.1619178111406541
    Two-Electron Energy =                 129.7319026285829011
    DFT Exchange-Correlation Energy =       0.0000000000000000
    Empirical Dispersion Energy =           0.0000000000000000
    PCM Polarization Energy =               0.0000000000000000
    EFP Energy =                            0.0000000000000000
    Total Energy =                       -187.3878233777734579


  Saving occupied orbitals to File 180.

*** tstop() called on Takums-iMac.local at Mon Jan 30 15:06:31 2017
Module time:
	user time   =       0.34 seconds =       0.01 minutes
	system time =       0.03 seconds =       0.00 minutes
	total time  =          1 seconds =       0.02 minutes
Total time:
	user time   =       2.79 seconds =       0.05 minutes
	system time =       0.12 seconds =       0.00 minutes
	total time  =          4 seconds =       0.07 minutes


Properties will be evaluated at   0.000000,   0.000000,   0.000000 Bohr

Properties computed using the SCF density matrix

  Nuclear Dipole Moment: (a.u.)
     X:    -0.0018      Y:    -0.0020      Z:     0.0000

  Electronic Dipole Moment: (a.u.)
     X:     0.1530      Y:    -0.0876      Z:     0.0000

  Dipole Moment: (a.u.)
     X:     0.1512      Y:    -0.0896      Z:     0.0000     Total:     0.1758

  Dipole Moment: (Debye)
     X:     0.3844      Y:    -0.2278      Z:     0.0000     Total:     0.4469


*** tstart() called on Takums-iMac.local
*** at Mon Jan 30 15:06:31 2017


         ------------------------------------------------------------
                                   SCF GRAD                          
                          Rob Parrish, Justin Turney,                
                       Andy Simmonett, and Alex Sokolov              
         ------------------------------------------------------------

  ==> Geometry <==

    Molecular point group: cs
    Full point group: Cs

    Geometry (in Angstrom), charge = 0, multiplicity = 1:

       Center              X                  Y                   Z               Mass       
    ------------   -----------------  -----------------  -----------------  -----------------
           C          0.491696438091     0.551524033885     0.000000000000    12.000000000000
           O          0.491696438091    -0.593295940620     0.000000000000    15.994914619560
           O         -0.860586013148     0.179521402648     0.000000000000    15.994914619560

  Nuclear repulsion =   62.042191804784295

  ==> Basis Set <==

  Basis Set: CC-PVDZ
    Number of shells: 18
    Number of basis function: 42
    Number of Cartesian functions: 45
    Spherical Harmonics?: true
    Max angular momentum: 2

  ==> DFJKGrad: Density-Fitted SCF Gradients <==

    Gradient:                    1
    J tasked:                  Yes
    K tasked:                  Yes
    wK tasked:                  No
    OpenMP threads:              1
    Integrals threads:           1
    Memory (MB):               178
    Schwarz Cutoff:          0E+00
    Fitting Condition:       1E-12

   => Auxiliary Basis Set <=

  Basis Set: 
    Number of shells: 72
    Number of basis function: 210
    Number of Cartesian functions: 243
    Spherical Harmonics?: true
    Max angular momentum: 3


  -Total Gradient:
     Atom            X                  Y                   Z
    ------   -----------------  -----------------  -----------------
       1       -0.030104219879    -0.144285742474     0.000000000000
       2        0.022189151297     0.123323393727     0.000000000000
       3        0.007915068582     0.020962348748     0.000000000000


*** tstop() called on Takums-iMac.local at Mon Jan 30 15:06:31 2017
Module time:
	user time   =       0.67 seconds =       0.01 minutes
	system time =       0.02 seconds =       0.00 minutes
	total time  =          0 seconds =       0.00 minutes
Total time:
	user time   =       3.47 seconds =       0.06 minutes
	system time =       0.14 seconds =       0.00 minutes
	total time  =          4 seconds =       0.07 minutes

			-----------------------------------------
			 OPTKING 2.0: for geometry optimizations 
			  - R.A. King,  Bethel University        
			-----------------------------------------

	Previous internal coordinate definitions found.
	---Fragment 1 Geometry and Gradient---
	 C           0.9291716085        1.0422293797        0.0000000000
	 O           0.9291716085       -1.1211668435        0.0000000000
	 O          -1.6262718786        0.3392462860        0.0000000000
	            -0.0301042199       -0.1442857425        0.0000000000
	             0.0221891513        0.1233233937        0.0000000000
	             0.0079150686        0.0209623487        0.0000000000

	---Fragment 1 Intrafragment Coordinates---
	 - Coordinate -           - BOHR/RAD -       - ANG/DEG -
	 R(1,2)           =         2.163396	       1.144820
	 R(1,3)           =         2.650373	       1.402517
	 R(2,3)           =         2.943314	       1.557535
	 B(1,2,3)         =         1.051603	      60.252419
	 B(1,3,2)         =         0.787645	      45.128754
	 B(2,1,3)         =         1.302344	      74.618827

	Current energy   :      -187.3878233778

	Energy change for the previous step:
		Projected    :        -0.0859698585
		Actual       :        -0.0574495681

	Performing BFGS update.
	Previous computed or guess Hessian on step 1.
	Steps to be used in Hessian update: 2 1
	Taking RFO optimization step.
	Going to follow RFO solution 1.
	Using RFO vector 1.
	Norm of target step-size    0.18907
	Projected energy change by RFO approximation:        -0.0183910516

	Back-transformation to cartesian coordinates...
	Successfully converged to displaced geometry.

	--- Internal Coordinate Step in ANG or DEG, aJ/ANG or AJ/DEG ---
	 ---------------------------------------------------------------------------
	   Coordinate                Previous        Force       Change         New 
	   ----------                --------       ------       ------       ------
	    1 R(1,2)          =      1.144820     0.905788     0.041769     1.186589
	    2 R(1,3)          =      1.402517     0.189712     0.037382     1.439899
	    3 R(2,3)          =      1.557535     0.008063    -0.053820     1.503715
	    4 B(1,2,3)        =     60.252419    -0.000249     3.183918    63.436338
	    5 B(1,3,2)        =     45.128754     0.003077     2.355065    47.483819
	    6 B(2,1,3)        =     74.618827    -0.002828    -5.538984    69.079843
	 ---------------------------------------------------------------------------

  ==> Convergence Check <==

  Measures of convergence in internal coordinates in au.
  Criteria marked as inactive (o), active & met (*), and active & unmet ( ).
  ---------------------------------------------------------------------------------------------
   Step     Total Energy     Delta E     MAX Force     RMS Force      MAX Disp      RMS Disp   
  ---------------------------------------------------------------------------------------------
    Convergence Criteria    1.00e-06 *    3.00e-04 *             o    1.20e-03 *             o
  ---------------------------------------------------------------------------------------------
      3    -187.38782338   -5.74e-02      1.10e-01      5.11e-02 o    1.02e-01      7.71e-02 o  ~
  ---------------------------------------------------------------------------------------------

	Writing optimization data to binary file.
	Structure for next step:
	Cartesian Geometry (in Angstrom)
	    C     0.5207579339   0.5864291191   0.0000000000
	    O     0.4533178849  -0.5982419801   0.0000000000
	    O    -0.8512689558   0.1495623569   0.0000000000
			--------------------------
			 OPTKING Finished Execution 
			--------------------------

    Structure for next step:
    Molecular point group: cs
    Full point group: Cs

    Geometry (in Angstrom), charge = 0, multiplicity = 1:

    C       
    O             1    1.186589
    O             1    1.439899      2   69.079843

gradient() will perform analytic gradient computation.

*** tstart() called on Takums-iMac.local
*** at Mon Jan 30 15:06:31 2017


         ---------------------------------------------------------
                                   SCF
            by Justin Turney, Rob Parrish, and Andy Simmonett
                              RHF Reference
                        1 Threads,    250 MiB Core
         ---------------------------------------------------------

  ==> Geometry <==

    Molecular point group: cs
    Full point group: Cs

    Geometry (in Angstrom), charge = 0, multiplicity = 1:

       Center              X                  Y                   Z               Mass       
    ------------   -----------------  -----------------  -----------------  -----------------
           C          0.489041119326     0.618393352445     0.000000000000    12.000000000000
           O          0.489041119326    -0.568195781836     0.000000000000    15.994914619560
           O         -0.855938572142     0.104253309754     0.000000000000    15.994914619560

  Running in cs symmetry.

  Rotational constants: A =      1.79902  B =      0.88865  C =      0.59483 [cm^-1]
  Rotational constants: A =  53933.30689  B =  26641.11102  C =  17832.49887 [MHz]
  Nuclear repulsion =   61.569241979848954

  Charge       = 0
  Multiplicity = 1
  Electrons    = 22
  Nalpha       = 11
  Nbeta        = 11

  ==> Algorithm <==

  SCF Algorithm Type is DF.
  DIIS enabled.
  MOM disabled.
  Fractional occupation disabled.
  Guess Type is READ.
  Energy threshold   = 1.00e-08
  Density threshold  = 1.00e-08
  Integral threshold = 0.00e+00

  ==> Primary Basis <==

  Basis Set: CC-PVDZ
    Number of shells: 18
    Number of basis function: 42
    Number of Cartesian functions: 45
    Spherical Harmonics?: true
    Max angular momentum: 2

  ==> Pre-Iterations <==

   -------------------------------------------------------
    Irrep   Nso     Nmo     Nalpha   Nbeta   Ndocc  Nsocc
   -------------------------------------------------------
     A'        30      30       0       0       0       0
     A"        12      12       0       0       0       0
   -------------------------------------------------------
    Total      42      42      11      11      11       0
   -------------------------------------------------------

  ==> Integral Setup <==

  ==> DFJK: Density-Fitted J/K Matrices <==

    J tasked:                  Yes
    K tasked:                  Yes
    wK tasked:                  No
    OpenMP threads:              1
    Integrals threads:           1
    Memory (MB):               178
    Algorithm:                Core
    Integral Cache:           NONE
    Schwarz Cutoff:          1E-12
    Fitting Condition:       1E-12

   => Auxiliary Basis Set <=

  Basis Set: 
    Number of shells: 72
    Number of basis function: 210
    Number of Cartesian functions: 243
    Spherical Harmonics?: true
    Max angular momentum: 3

  Minimum eigenvalue in the overlap matrix is 1.9297072273E-02.
  Using Symmetric Orthogonalization.
  SCF Guess: Reading in previously saved MOs, projecting if necessary.

  Using orbitals from previous SCF, no projection.
  Recomputing DOCC and SOCC from number of alpha and beta electrons from previous calculation.
             Ap   App 
    DOCC [     9,    2 ]

  ==> Iterations <==

                           Total Energy        Delta E     RMS |[F,P]|

   @DF-RHF iter   0:  -187.32401571228107   -1.87324e+02   7.87978e-03 
   @DF-RHF iter   1:  -187.39546019680634   -7.14445e-02   1.57759e-03 
   @DF-RHF iter   2:  -187.39675134196480   -1.29115e-03   9.28018e-04 DIIS
   @DF-RHF iter   3:  -187.39710905301806   -3.57711e-04   2.66897e-04 DIIS
   @DF-RHF iter   4:  -187.39718357515684   -7.45221e-05   1.55211e-04 DIIS
   @DF-RHF iter   5:  -187.39720456708648   -2.09919e-05   5.17176e-05 DIIS
   @DF-RHF iter   6:  -187.39721085616250   -6.28908e-06   3.19952e-05 DIIS
   @DF-RHF iter   7:  -187.39721395717314   -3.10101e-06   9.69005e-06 DIIS
   @DF-RHF iter   8:  -187.39721424171321   -2.84540e-07   2.78568e-06 DIIS
   @DF-RHF iter   9:  -187.39721425985076   -1.81375e-08   9.01220e-07 DIIS
   @DF-RHF iter  10:  -187.39721426193773   -2.08698e-09   2.66200e-07 DIIS
   @DF-RHF iter  11:  -187.39721426210920   -1.71468e-10   8.84085e-08 DIIS
   @DF-RHF iter  12:  -187.39721426212947   -2.02647e-11   2.71507e-08 DIIS
   @DF-RHF iter  13:  -187.39721426213154   -2.07478e-12   6.58072e-09 DIIS

  ==> Post-Iterations <==

    Orbital Energies (a.u.)
    -----------------------

    Doubly Occupied:                                                      

       1Ap   -20.733649     2Ap   -20.692112     3Ap   -11.414489  
       4Ap    -1.672472     5Ap    -1.275057     6Ap    -0.893546  
       1App   -0.750574     7Ap    -0.690525     8Ap    -0.647668  
       2App   -0.532745     9Ap    -0.487955  

    Virtual:                                                              

       3App    0.114590    10Ap     0.130203    11Ap     0.256364  
      12Ap     0.402091     4App    0.655524    13Ap     0.659431  
      14Ap     0.731475    15Ap     0.882391    16Ap     1.018875  
      17Ap     1.107302     5App    1.165289     6App    1.180051  
      18Ap     1.227014    19Ap     1.314549    20Ap     1.393731  
       7App    1.400328     8App    1.480060    21Ap     1.834273  
      22Ap     2.018187    23Ap     2.021072    24Ap     2.230659  
      25Ap     2.633361     9App    2.646989    26Ap     2.992826  
      10App    3.043011    11App    3.192879    27Ap     3.214620  
      12App    3.334466    28Ap     3.457056    29Ap     3.740001  
      30Ap     3.981045  

    Final Occupation by Irrep:
             Ap   App 
    DOCC [     9,    2 ]

  Energy converged.

  @DF-RHF Final Energy:  -187.39721426213154

   => Energetics <=

    Nuclear Repulsion Energy =             61.5692419798489539
    One-Electron Energy =                -378.3513282263669453
    Two-Electron Energy =                 129.3848719843864217
    DFT Exchange-Correlation Energy =       0.0000000000000000
    Empirical Dispersion Energy =           0.0000000000000000
    PCM Polarization Energy =               0.0000000000000000
    EFP Energy =                            0.0000000000000000
    Total Energy =                       -187.3972142621315982


  Saving occupied orbitals to File 180.

*** tstop() called on Takums-iMac.local at Mon Jan 30 15:06:32 2017
Module time:
	user time   =       0.36 seconds =       0.01 minutes
	system time =       0.02 seconds =       0.00 minutes
	total time  =          1 seconds =       0.02 minutes
Total time:
	user time   =       3.92 seconds =       0.07 minutes
	system time =       0.17 seconds =       0.00 minutes
	total time  =          5 seconds =       0.08 minutes


Properties will be evaluated at   0.000000,   0.000000,   0.000000 Bohr

Properties computed using the SCF density matrix

  Nuclear Dipole Moment: (a.u.)
     X:    -0.0018      Y:    -0.0022      Z:     0.0000

  Electronic Dipole Moment: (a.u.)
     X:     0.2240      Y:    -0.0029      Z:     0.0000

  Dipole Moment: (a.u.)
     X:     0.2223      Y:    -0.0051      Z:     0.0000     Total:     0.2223

  Dipole Moment: (Debye)
     X:     0.5649      Y:    -0.0130      Z:     0.0000     Total:     0.5651


*** tstart() called on Takums-iMac.local
*** at Mon Jan 30 15:06:32 2017


         ------------------------------------------------------------
                                   SCF GRAD                          
                          Rob Parrish, Justin Turney,                
                       Andy Simmonett, and Alex Sokolov              
         ------------------------------------------------------------

  ==> Geometry <==

    Molecular point group: cs
    Full point group: Cs

    Geometry (in Angstrom), charge = 0, multiplicity = 1:

       Center              X                  Y                   Z               Mass       
    ------------   -----------------  -----------------  -----------------  -----------------
           C          0.489041119326     0.618393352445     0.000000000000    12.000000000000
           O          0.489041119326    -0.568195781836     0.000000000000    15.994914619560
           O         -0.855938572142     0.104253309754     0.000000000000    15.994914619560

  Nuclear repulsion =   61.569241979848954

  ==> Basis Set <==

  Basis Set: CC-PVDZ
    Number of shells: 18
    Number of basis function: 42
    Number of Cartesian functions: 45
    Spherical Harmonics?: true
    Max angular momentum: 2

  ==> DFJKGrad: Density-Fitted SCF Gradients <==

    Gradient:                    1
    J tasked:                  Yes
    K tasked:                  Yes
    wK tasked:                  No
    OpenMP threads:              1
    Integrals threads:           1
    Memory (MB):               178
    Schwarz Cutoff:          0E+00
    Fitting Condition:       1E-12

   => Auxiliary Basis Set <=

  Basis Set: 
    Number of shells: 72
    Number of basis function: 210
    Number of Cartesian functions: 243
    Spherical Harmonics?: true
    Max angular momentum: 3


  -Total Gradient:
     Atom            X                  Y                   Z
    ------   -----------------  -----------------  -----------------
       1        0.007824268900    -0.049946943706     0.000000000000
       2       -0.000115751482     0.052995767719     0.000000000000
       3       -0.007708517416    -0.003048824012     0.000000000000


*** tstop() called on Takums-iMac.local at Mon Jan 30 15:06:33 2017
Module time:
	user time   =       0.66 seconds =       0.01 minutes
	system time =       0.01 seconds =       0.00 minutes
	total time  =          1 seconds =       0.02 minutes
Total time:
	user time   =       4.59 seconds =       0.08 minutes
	system time =       0.18 seconds =       0.00 minutes
	total time  =          6 seconds =       0.10 minutes

			-----------------------------------------
			 OPTKING 2.0: for geometry optimizations 
			  - R.A. King,  Bethel University        
			-----------------------------------------

	Previous internal coordinate definitions found.
	---Fragment 1 Geometry and Gradient---
	 C           0.9241537832        1.1685940785        0.0000000000
	 O           0.9241537832       -1.0737344175        0.0000000000
	 O          -1.6174894879        0.1970102039        0.0000000000
	             0.0078242689       -0.0499469437        0.0000000000
	            -0.0001157515        0.0529957677        0.0000000000
	            -0.0077085174       -0.0030488240        0.0000000000

	---Fragment 1 Intrafragment Coordinates---
	 - Coordinate -           - BOHR/RAD -       - ANG/DEG -
	 R(1,2)           =         2.242328	       1.186589
	 R(1,3)           =         2.721016	       1.439899
	 R(2,3)           =         2.841609	       1.503715
	 B(1,2,3)         =         1.107173	      63.436338
	 B(1,3,2)         =         0.828749	      47.483819
	 B(2,1,3)         =         1.205671	      69.079843

	Current energy   :      -187.3972142621

	Energy change for the previous step:
		Projected    :        -0.0183910516
		Actual       :        -0.0093908844

	Performing BFGS update.
	Previous computed or guess Hessian on step 1.
	Steps to be used in Hessian update: 3 2
	Taking RFO optimization step.
	Going to follow RFO solution 1.
	Using RFO vector 1.
	Norm of target step-size    0.04633
	Projected energy change by RFO approximation:        -0.0014266629

	Back-transformation to cartesian coordinates...
	Successfully converged to displaced geometry.

	--- Internal Coordinate Step in ANG or DEG, aJ/ANG or AJ/DEG ---
	 ---------------------------------------------------------------------------
	   Coordinate                Previous        Force       Change         New 
	   ----------                --------       ------       ------       ------
	    1 R(1,2)          =      1.186589     0.354838     0.015796     1.202386
	    2 R(1,3)          =      1.439899    -0.028817     0.004927     1.444826
	    3 R(2,3)          =      1.503715     0.026735    -0.011790     1.491924
	    4 B(1,2,3)        =     63.436338    -0.000765     0.362962    63.799299
	    5 B(1,3,2)        =     47.483819     0.001283     0.821036    48.304855
	    6 B(2,1,3)        =     69.079843    -0.000518    -1.183997    67.895846
	 ---------------------------------------------------------------------------

  ==> Convergence Check <==

  Measures of convergence in internal coordinates in au.
  Criteria marked as inactive (o), active & met (*), and active & unmet ( ).
  ---------------------------------------------------------------------------------------------
   Step     Total Energy     Delta E     MAX Force     RMS Force      MAX Disp      RMS Disp   
  ---------------------------------------------------------------------------------------------
    Convergence Criteria    1.00e-06 *    3.00e-04 *             o    1.20e-03 *             o
  ---------------------------------------------------------------------------------------------
      4    -187.39721426   -9.39e-03      4.31e-02      1.96e-02 o    2.99e-02      1.89e-02 o  ~
  ---------------------------------------------------------------------------------------------

	Writing optimization data to binary file.
	Structure for next step:
	Cartesian Geometry (in Angstrom)
	    C     0.4926930067   0.6290368823   0.0000000000
	    O     0.4807329876  -0.5732892170   0.0000000000
	    O    -0.8512823278   0.0987032151   0.0000000000
			--------------------------
			 OPTKING Finished Execution 
			--------------------------

    Structure for next step:
    Molecular point group: cs
    Full point group: Cs

    Geometry (in Angstrom), charge = 0, multiplicity = 1:

    C       
    O             1    1.202386
    O             1    1.444826      2   67.895846

gradient() will perform analytic gradient computation.

*** tstart() called on Takums-iMac.local
*** at Mon Jan 30 15:06:33 2017


         ---------------------------------------------------------
                                   SCF
            by Justin Turney, Rob Parrish, and Andy Simmonett
                              RHF Reference
                        1 Threads,    250 MiB Core
         ---------------------------------------------------------

  ==> Geometry <==

    Molecular point group: cs
    Full point group: Cs

    Geometry (in Angstrom), charge = 0, multiplicity = 1:

       Center              X                  Y                   Z               Mass       
    ------------   -----------------  -----------------  -----------------  -----------------
           C          0.486733673559     0.634876372838     0.000000000000    12.000000000000
           O          0.486733673559    -0.567509210598     0.000000000000    15.994914619560
           O         -0.851899991831     0.091200542796     0.000000000000    15.994914619560

  Running in cs symmetry.

  Rotational constants: A =      1.74220  B =      0.90217  C =      0.59438 [cm^-1]
  Rotational constants: A =  52229.90878  B =  27046.51391  C =  17819.13091 [MHz]
  Nuclear repulsion =   61.405847745989703

  Charge       = 0
  Multiplicity = 1
  Electrons    = 22
  Nalpha       = 11
  Nbeta        = 11

  ==> Algorithm <==

  SCF Algorithm Type is DF.
  DIIS enabled.
  MOM disabled.
  Fractional occupation disabled.
  Guess Type is READ.
  Energy threshold   = 1.00e-08
  Density threshold  = 1.00e-08
  Integral threshold = 0.00e+00

  ==> Primary Basis <==

  Basis Set: CC-PVDZ
    Number of shells: 18
    Number of basis function: 42
    Number of Cartesian functions: 45
    Spherical Harmonics?: true
    Max angular momentum: 2

  ==> Pre-Iterations <==

   -------------------------------------------------------
    Irrep   Nso     Nmo     Nalpha   Nbeta   Ndocc  Nsocc
   -------------------------------------------------------
     A'        30      30       0       0       0       0
     A"        12      12       0       0       0       0
   -------------------------------------------------------
    Total      42      42      11      11      11       0
   -------------------------------------------------------

  ==> Integral Setup <==

  ==> DFJK: Density-Fitted J/K Matrices <==

    J tasked:                  Yes
    K tasked:                  Yes
    wK tasked:                  No
    OpenMP threads:              1
    Integrals threads:           1
    Memory (MB):               178
    Algorithm:                Core
    Integral Cache:           NONE
    Schwarz Cutoff:          1E-12
    Fitting Condition:       1E-12

   => Auxiliary Basis Set <=

  Basis Set: 
    Number of shells: 72
    Number of basis function: 210
    Number of Cartesian functions: 243
    Spherical Harmonics?: true
    Max angular momentum: 3

  Minimum eigenvalue in the overlap matrix is 1.9611513552E-02.
  Using Symmetric Orthogonalization.
  SCF Guess: Reading in previously saved MOs, projecting if necessary.

  Using orbitals from previous SCF, no projection.
  Recomputing DOCC and SOCC from number of alpha and beta electrons from previous calculation.
             Ap   App 
    DOCC [     9,    2 ]

  ==> Iterations <==

                           Total Energy        Delta E     RMS |[F,P]|

   @DF-RHF iter   0:  -187.37847084525498   -1.87378e+02   2.30070e-03 
   @DF-RHF iter   1:  -187.39813152705369   -1.96607e-02   4.51827e-04 
   @DF-RHF iter   2:  -187.39821322951781   -8.17025e-05   3.18132e-04 DIIS
   @DF-RHF iter   3:  -187.39825226524141   -3.90357e-05   7.62169e-05 DIIS
   @DF-RHF iter   4:  -187.39825822076347   -5.95552e-06   3.97283e-05 DIIS
   @DF-RHF iter   5:  -187.39826025580851   -2.03505e-06   1.55484e-05 DIIS
   @DF-RHF iter   6:  -187.39826079959994   -5.43791e-07   8.30767e-06 DIIS
   @DF-RHF iter   7:  -187.39826099880133   -1.99201e-07   2.39891e-06 DIIS
   @DF-RHF iter   8:  -187.39826101299400   -1.41927e-08   9.11256e-07 DIIS
   @DF-RHF iter   9:  -187.39826101511392   -2.11992e-09   3.47410e-07 DIIS
   @DF-RHF iter  10:  -187.39826101546828   -3.54362e-10   1.09472e-07 DIIS
   @DF-RHF iter  11:  -187.39826101550221   -3.39355e-11   3.08253e-08 DIIS
   @DF-RHF iter  12:  -187.39826101550432   -2.10321e-12   7.00798e-09 DIIS

  ==> Post-Iterations <==

    Orbital Energies (a.u.)
    -----------------------

    Doubly Occupied:                                                      

       1Ap   -20.731980     2Ap   -20.690876     3Ap   -11.419628  
       4Ap    -1.668252     5Ap    -1.268313     6Ap    -0.894116  
       1App   -0.747708     7Ap    -0.688319     8Ap    -0.642400  
       2App   -0.528917     9Ap    -0.492651  

    Virtual:                                                              

       3App    0.108272    10Ap     0.140392    11Ap     0.249656  
      12Ap     0.399491     4App    0.655616    13Ap     0.658673  
      14Ap     0.730504    15Ap     0.859207    16Ap     1.021765  
      17Ap     1.107140     5App    1.166647     6App    1.180733  
      18Ap     1.230855    19Ap     1.314592    20Ap     1.383536  
       7App    1.400843     8App    1.469561    21Ap     1.829439  
      22Ap     2.013751    23Ap     2.024244    24Ap     2.216442  
      25Ap     2.632382     9App    2.634754    26Ap     2.997471  
      10App    3.040849    27Ap     3.196993    11App    3.204173  
      12App    3.324443    28Ap     3.454842    29Ap     3.717874  
      30Ap     4.001010  

    Final Occupation by Irrep:
             Ap   App 
    DOCC [     9,    2 ]

  Energy converged.

  @DF-RHF Final Energy:  -187.39826101550432

   => Energetics <=

    Nuclear Repulsion Energy =             61.4058477459897034
    One-Electron Energy =                -378.0618973604139228
    Two-Electron Energy =                 129.2577885989198592
    DFT Exchange-Correlation Energy =       0.0000000000000000
    Empirical Dispersion Energy =           0.0000000000000000
    PCM Polarization Energy =               0.0000000000000000
    EFP Energy =                            0.0000000000000000
    Total Energy =                       -187.3982610155043460


  Saving occupied orbitals to File 180.

*** tstop() called on Takums-iMac.local at Mon Jan 30 15:06:33 2017
Module time:
	user time   =       0.33 seconds =       0.01 minutes
	system time =       0.01 seconds =       0.00 minutes
	total time  =          0 seconds =       0.00 minutes
Total time:
	user time   =       5.01 seconds =       0.08 minutes
	system time =       0.20 seconds =       0.00 minutes
	total time  =          6 seconds =       0.10 minutes


Properties will be evaluated at   0.000000,   0.000000,   0.000000 Bohr

Properties computed using the SCF density matrix

  Nuclear Dipole Moment: (a.u.)
     X:    -0.0018      Y:    -0.0023      Z:     0.0000

  Electronic Dipole Moment: (a.u.)
     X:     0.2357      Y:     0.0241      Z:     0.0000

  Dipole Moment: (a.u.)
     X:     0.2340      Y:     0.0218      Z:     0.0000     Total:     0.2350

  Dipole Moment: (Debye)
     X:     0.5947      Y:     0.0555      Z:     0.0000     Total:     0.5973


*** tstart() called on Takums-iMac.local
*** at Mon Jan 30 15:06:33 2017


         ------------------------------------------------------------
                                   SCF GRAD                          
                          Rob Parrish, Justin Turney,                
                       Andy Simmonett, and Alex Sokolov              
         ------------------------------------------------------------

  ==> Geometry <==

    Molecular point group: cs
    Full point group: Cs

    Geometry (in Angstrom), charge = 0, multiplicity = 1:

       Center              X                  Y                   Z               Mass       
    ------------   -----------------  -----------------  -----------------  -----------------
           C          0.486733673559     0.634876372838     0.000000000000    12.000000000000
           O          0.486733673559    -0.567509210598     0.000000000000    15.994914619560
           O         -0.851899991831     0.091200542796     0.000000000000    15.994914619560

  Nuclear repulsion =   61.405847745989703

  ==> Basis Set <==

  Basis Set: CC-PVDZ
    Number of shells: 18
    Number of basis function: 42
    Number of Cartesian functions: 45
    Spherical Harmonics?: true
    Max angular momentum: 2

  ==> DFJKGrad: Density-Fitted SCF Gradients <==

    Gradient:                    1
    J tasked:                  Yes
    K tasked:                  Yes
    wK tasked:                  No
    OpenMP threads:              1
    Integrals threads:           1
    Memory (MB):               178
    Schwarz Cutoff:          0E+00
    Fitting Condition:       1E-12

   => Auxiliary Basis Set <=

  Basis Set: 
    Number of shells: 72
    Number of basis function: 210
    Number of Cartesian functions: 243
    Spherical Harmonics?: true
    Max angular momentum: 3


  -Total Gradient:
     Atom            X                  Y                   Z
    ------   -----------------  -----------------  -----------------
       1        0.016282598196    -0.023094164376     0.000000000000
       2       -0.004705654336     0.032022747425     0.000000000000
       3       -0.011576943858    -0.008928583048     0.000000000000


*** tstop() called on Takums-iMac.local at Mon Jan 30 15:06:34 2017
Module time:
	user time   =       0.65 seconds =       0.01 minutes
	system time =       0.02 seconds =       0.00 minutes
	total time  =          1 seconds =       0.02 minutes
Total time:
	user time   =       5.67 seconds =       0.09 minutes
	system time =       0.22 seconds =       0.00 minutes
	total time  =          7 seconds =       0.12 minutes

			-----------------------------------------
			 OPTKING 2.0: for geometry optimizations 
			  - R.A. King,  Bethel University        
			-----------------------------------------

	Previous internal coordinate definitions found.
	---Fragment 1 Geometry and Gradient---
	 C           0.9197933427        1.1997424729        0.0000000000
	 O           0.9197933427       -1.0724369859        0.0000000000
	 O          -1.6098576772        0.1723440491        0.0000000000
	             0.0162825982       -0.0230941644        0.0000000000
	            -0.0047056543        0.0320227474        0.0000000000
	            -0.0115769439       -0.0089285830        0.0000000000

	---Fragment 1 Intrafragment Coordinates---
	 - Coordinate -           - BOHR/RAD -       - ANG/DEG -
	 R(1,2)           =         2.272179	       1.202386
	 R(1,3)           =         2.730326	       1.444826
	 R(2,3)           =         2.819329	       1.491924
	 B(1,2,3)         =         1.113508	      63.799299
	 B(1,3,2)         =         0.843079	      48.304855
	 B(2,1,3)         =         1.185006	      67.895846

	Current energy   :      -187.3982610155

	Energy change for the previous step:
		Projected    :        -0.0014266629
		Actual       :        -0.0010467534

	Performing BFGS update.
	Previous computed or guess Hessian on step 1.
	Steps to be used in Hessian update: 4 3
	Taking RFO optimization step.
	Going to follow RFO solution 1.
	Using RFO vector 1.
	Norm of target step-size    0.03146
	Projected energy change by RFO approximation:        -0.0010946635

	Back-transformation to cartesian coordinates...
	Successfully converged to displaced geometry.

	--- Internal Coordinate Step in ANG or DEG, aJ/ANG or AJ/DEG ---
	 ---------------------------------------------------------------------------
	   Coordinate                Previous        Force       Change         New 
	   ----------                --------       ------       ------       ------
	    1 R(1,2)          =      1.202386     0.195693     0.010427     1.212812
	    2 R(1,3)          =      1.444826    -0.090110    -0.009306     1.435521
	    3 R(2,3)          =      1.491924     0.029791     0.002123     1.494048
	    4 B(1,2,3)        =     63.799299    -0.000805    -0.748064    63.051236
	    5 B(1,3,2)        =     48.304855     0.000790     0.556298    48.861153
	    6 B(2,1,3)        =     67.895846     0.000015     0.191765    68.087611
	 ---------------------------------------------------------------------------

  ==> Convergence Check <==

  Measures of convergence in internal coordinates in au.
  Criteria marked as inactive (o), active & met (*), and active & unmet ( ).
  ---------------------------------------------------------------------------------------------
   Step     Total Energy     Delta E     MAX Force     RMS Force      MAX Disp      RMS Disp   
  ---------------------------------------------------------------------------------------------
    Convergence Criteria    1.00e-06 *    3.00e-04 *             o    1.20e-03 *             o
  ---------------------------------------------------------------------------------------------
      5    -187.39826102   -1.05e-03      2.38e-02      1.24e-02 o    1.97e-02      1.28e-02 o  ~
  ---------------------------------------------------------------------------------------------

	Writing optimization data to binary file.
	Structure for next step:
	Cartesian Geometry (in Angstrom)
	    C     0.4808048827   0.6384658257   0.0000000000
	    O     0.4883923155  -0.5743228812   0.0000000000
	    O    -0.8476298429   0.0944247606   0.0000000000
			--------------------------
			 OPTKING Finished Execution 
			--------------------------

    Structure for next step:
    Molecular point group: cs
    Full point group: Cs

    Geometry (in Angstrom), charge = 0, multiplicity = 1:

    C       
    O             1    1.212812
    O             1    1.435521      2   68.087611

gradient() will perform analytic gradient computation.

*** tstart() called on Takums-iMac.local
*** at Mon Jan 30 15:06:34 2017


         ---------------------------------------------------------
                                   SCF
            by Justin Turney, Rob Parrish, and Andy Simmonett
                              RHF Reference
                        1 Threads,    250 MiB Core
         ---------------------------------------------------------

  ==> Geometry <==

    Molecular point group: cs
    Full point group: Cs

    Geometry (in Angstrom), charge = 0, multiplicity = 1:

       Center              X                  Y                   Z               Mass       
    ------------   -----------------  -----------------  -----------------  -----------------
           C          0.484253386664     0.635774721374     0.000000000000    12.000000000000
           O          0.484253386664    -0.577037719478     0.000000000000    15.994914619560
           O         -0.847558898333     0.100055076060     0.000000000000    15.994914619560

  Running in cs symmetry.

  Rotational constants: A =      1.72244  B =      0.90611  C =      0.59376 [cm^-1]
  Rotational constants: A =  51637.53891  B =  27164.56250  C =  17800.42826 [MHz]
  Nuclear repulsion =   61.305934482154953

  Charge       = 0
  Multiplicity = 1
  Electrons    = 22
  Nalpha       = 11
  Nbeta        = 11

  ==> Algorithm <==

  SCF Algorithm Type is DF.
  DIIS enabled.
  MOM disabled.
  Fractional occupation disabled.
  Guess Type is READ.
  Energy threshold   = 1.00e-08
  Density threshold  = 1.00e-08
  Integral threshold = 0.00e+00

  ==> Primary Basis <==

  Basis Set: CC-PVDZ
    Number of shells: 18
    Number of basis function: 42
    Number of Cartesian functions: 45
    Spherical Harmonics?: true
    Max angular momentum: 2

  ==> Pre-Iterations <==

   -------------------------------------------------------
    Irrep   Nso     Nmo     Nalpha   Nbeta   Ndocc  Nsocc
   -------------------------------------------------------
     A'        30      30       0       0       0       0
     A"        12      12       0       0       0       0
   -------------------------------------------------------
    Total      42      42      11      11      11       0
   -------------------------------------------------------

  ==> Integral Setup <==

  ==> DFJK: Density-Fitted J/K Matrices <==

    J tasked:                  Yes
    K tasked:                  Yes
    wK tasked:                  No
    OpenMP threads:              1
    Integrals threads:           1
    Memory (MB):               178
    Algorithm:                Core
    Integral Cache:           NONE
    Schwarz Cutoff:          1E-12
    Fitting Condition:       1E-12

   => Auxiliary Basis Set <=

  Basis Set: 
    Number of shells: 72
    Number of basis function: 210
    Number of Cartesian functions: 243
    Spherical Harmonics?: true
    Max angular momentum: 3

  Minimum eigenvalue in the overlap matrix is 1.9744076778E-02.
  Using Symmetric Orthogonalization.
  SCF Guess: Reading in previously saved MOs, projecting if necessary.

  Using orbitals from previous SCF, no projection.
  Recomputing DOCC and SOCC from number of alpha and beta electrons from previous calculation.
             Ap   App 
    DOCC [     9,    2 ]

  ==> Iterations <==

                           Total Energy        Delta E     RMS |[F,P]|

   @DF-RHF iter   0:  -187.39221805128102   -1.87392e+02   1.49789e-03 
   @DF-RHF iter   1:  -187.39896815192134   -6.75010e-03   3.58931e-04 
   @DF-RHF iter   2:  -187.39902952133826   -6.13694e-05   2.97696e-04 DIIS
   @DF-RHF iter   3:  -187.39906985747712   -4.03361e-05   8.38939e-05 DIIS
   @DF-RHF iter   4:  -187.39908412437251   -1.42669e-05   3.07644e-05 DIIS
   @DF-RHF iter   5:  -187.39908671923703   -2.59486e-06   8.75189e-06 DIIS
   @DF-RHF iter   6:  -187.39908689894116   -1.79704e-07   2.96557e-06 DIIS
   @DF-RHF iter   7:  -187.39908691620508   -1.72639e-08   1.05564e-06 DIIS
   @DF-RHF iter   8:  -187.39908691848748   -2.28241e-09   3.07688e-07 DIIS
   @DF-RHF iter   9:  -187.39908691859864   -1.11157e-10   1.23736e-07 DIIS
   @DF-RHF iter  10:  -187.39908691862186   -2.32205e-11   5.46231e-08 DIIS
   @DF-RHF iter  11:  -187.39908691862948   -7.61702e-12   2.26746e-08 DIIS
   @DF-RHF iter  12:  -187.39908691863127   -1.79057e-12   5.56779e-09 DIIS

  ==> Post-Iterations <==

    Orbital Energies (a.u.)
    -----------------------

    Doubly Occupied:                                                      

       1Ap   -20.730827     2Ap   -20.693227     3Ap   -11.420831  
       4Ap    -1.664545     5Ap    -1.268373     6Ap    -0.893004  
       1App   -0.745985     7Ap    -0.686077     8Ap    -0.643934  
       2App   -0.529140     9Ap    -0.492717  

    Virtual:                                                              

       3App    0.106446    10Ap     0.137858    11Ap     0.252174  
      12Ap     0.398990     4App    0.655996    13Ap     0.661974  
      14Ap     0.730327    15Ap     0.846025    16Ap     1.024056  
      17Ap     1.103793     5App    1.167439     6App    1.182067  
      18Ap     1.231140    19Ap     1.315318    20Ap     1.381212  
       7App    1.401019     8App    1.464069    21Ap     1.833506  
      22Ap     2.014259    23Ap     2.022741    24Ap     2.203958  
      25Ap     2.633183     9App    2.635528    26Ap     2.999958  
      10App    3.042609    27Ap     3.186872    11App    3.204239  
      12App    3.316294    28Ap     3.462024    29Ap     3.705067  
      30Ap     3.996538  

    Final Occupation by Irrep:
             Ap   App 
    DOCC [     9,    2 ]

  Energy converged.

  @DF-RHF Final Energy:  -187.39908691863127

   => Energetics <=

    Nuclear Repulsion Energy =             61.3059344821549530
    One-Electron Energy =                -377.8727229743799967
    Two-Electron Energy =                 129.1677015735937744
    DFT Exchange-Correlation Energy =       0.0000000000000000
    Empirical Dispersion Energy =           0.0000000000000000
    PCM Polarization Energy =               0.0000000000000000
    EFP Energy =                            0.0000000000000000
    Total Energy =                       -187.3990869186312693


  Saving occupied orbitals to File 180.

*** tstop() called on Takums-iMac.local at Mon Jan 30 15:06:34 2017
Module time:
	user time   =       0.33 seconds =       0.01 minutes
	system time =       0.01 seconds =       0.00 minutes
	total time  =          0 seconds =       0.00 minutes
Total time:
	user time   =       6.09 seconds =       0.10 minutes
	system time =       0.23 seconds =       0.00 minutes
	total time  =          7 seconds =       0.12 minutes


Properties will be evaluated at   0.000000,   0.000000,   0.000000 Bohr

Properties computed using the SCF density matrix

  Nuclear Dipole Moment: (a.u.)
     X:    -0.0017      Y:    -0.0023      Z:     0.0000

  Electronic Dipole Moment: (a.u.)
     X:     0.2220      Y:     0.0332      Z:     0.0000

  Dipole Moment: (a.u.)
     X:     0.2202      Y:     0.0310      Z:     0.0000     Total:     0.2224

  Dipole Moment: (Debye)
     X:     0.5598      Y:     0.0787      Z:     0.0000     Total:     0.5653


*** tstart() called on Takums-iMac.local
*** at Mon Jan 30 15:06:34 2017


         ------------------------------------------------------------
                                   SCF GRAD                          
                          Rob Parrish, Justin Turney,                
                       Andy Simmonett, and Alex Sokolov              
         ------------------------------------------------------------

  ==> Geometry <==

    Molecular point group: cs
    Full point group: Cs

    Geometry (in Angstrom), charge = 0, multiplicity = 1:

       Center              X                  Y                   Z               Mass       
    ------------   -----------------  -----------------  -----------------  -----------------
           C          0.484253386664     0.635774721374     0.000000000000    12.000000000000
           O          0.484253386664    -0.577037719478     0.000000000000    15.994914619560
           O         -0.847558898333     0.100055076060     0.000000000000    15.994914619560

  Nuclear repulsion =   61.305934482154953

  ==> Basis Set <==

  Basis Set: CC-PVDZ
    Number of shells: 18
    Number of basis function: 42
    Number of Cartesian functions: 45
    Spherical Harmonics?: true
    Max angular momentum: 2

  ==> DFJKGrad: Density-Fitted SCF Gradients <==

    Gradient:                    1
    J tasked:                  Yes
[...]

			-----------------------------------------
			 OPTKING 2.0: for geometry optimizations 
			  - R.A. King,  Bethel University        
			-----------------------------------------

	Previous internal coordinate definitions found.
	---Fragment 1 Geometry and Gradient---
	 C           0.8323956526        1.2099514957        0.0000000000
	 O           0.8323956526       -1.2448147897        0.0000000000
	 O          -1.4568908793        0.3370626513        0.0000000000
	             0.0003678267        0.0011411936        0.0000000000
	             0.0002453543       -0.0011704894        0.0000000000
	            -0.0006131810        0.0000292958        0.0000000000

	---Fragment 1 Intrafragment Coordinates---
	 - Coordinate -           - BOHR/RAD -       - ANG/DEG -
	 R(1,2)           =         2.454766	       1.299006
	 R(1,3)           =         2.450055	       1.296513
	 R(2,3)           =         2.782655	       1.472518
	 B(1,2,3)         =         0.966142	      55.355858
	 B(1,3,2)         =         0.968931	      55.515639
	 B(2,1,3)         =         1.206520	      69.128503

	Current energy   :      -187.4039682620

	Energy change for the previous step:
		Projected    :         0.0000015418
		Actual       :        -0.0000039860

	Performing BFGS update.
	Previous computed or guess Hessian on step 1.
	Steps to be used in Hessian update: 11 10
	Taking RFO optimization step.
	Going to follow RFO solution 1.
	Using RFO vector 1.
	Norm of target step-size    0.00371
	Projected energy change by RFO approximation:        -0.0000003930

	Back-transformation to cartesian coordinates...
	Successfully converged to displaced geometry.

	--- Internal Coordinate Step in ANG or DEG, aJ/ANG or AJ/DEG ---
	 ---------------------------------------------------------------------------
	   Coordinate                Previous        Force       Change         New 
	   ----------                --------       ------       ------       ------
	    1 R(1,2)          =      1.299006    -0.007068    -0.001560     1.297446
	    2 R(1,3)          =      1.296513    -0.003364     0.000622     1.297136
	    3 R(2,3)          =      1.472518    -0.003390    -0.000433     1.472085
	    4 B(1,2,3)        =     55.355858     0.000004     0.067233    55.423091
	    5 B(1,3,2)        =     55.515639    -0.000016    -0.072617    55.443022
	    6 B(2,1,3)        =     69.128503     0.000012     0.005385    69.133888
	 ---------------------------------------------------------------------------

  ==> Convergence Check <==

  Measures of convergence in internal coordinates in au.
  Criteria marked as inactive (o), active & met (*), and active & unmet ( ).
  ---------------------------------------------------------------------------------------------
   Step     Total Energy     Delta E     MAX Force     RMS Force      MAX Disp      RMS Disp   
  ---------------------------------------------------------------------------------------------
    Convergence Criteria    1.00e-06 *    3.00e-04 *             o    1.20e-03 *             o
  ---------------------------------------------------------------------------------------------
     12    -187.40396826   -3.99e-06      8.58e-04      4.36e-04 o    2.95e-03      1.51e-03 o  ~
  ---------------------------------------------------------------------------------------------

	Writing optimization data to binary file.
	Structure for next step:
	Cartesian Geometry (in Angstrom)
	    C     0.4409458895   0.6396205328   0.0000000000
	    O     0.4403866775  -0.6578257788   0.0000000000
	    O    -0.7713163999   0.1781222584   0.0000000000
			--------------------------
			 OPTKING Finished Execution 
			--------------------------

    Structure for next step:
    Molecular point group: cs
    Full point group: Cs

    Geometry (in Angstrom), charge = 0, multiplicity = 1:

    C       
    O             1    1.297446
    O             1    1.297136      2   69.133888

gradient() will perform analytic gradient computation.

*** tstart() called on Takums-iMac.local
*** at Mon Jan 30 15:06:42 2017


         ---------------------------------------------------------
                                   SCF
            by Justin Turney, Rob Parrish, and Andy Simmonett
                              RHF Reference
                        1 Threads,    250 MiB Core
         ---------------------------------------------------------

  ==> Geometry <==

    Molecular point group: cs
    Full point group: Cs

    Geometry (in Angstrom), charge = 0, multiplicity = 1:

       Center              X                  Y                   Z               Mass       
    ------------   -----------------  -----------------  -----------------  -----------------
           C          0.440712064501     0.639750767228     0.000000000000    12.000000000000
           O          0.440712064501    -0.657695664831     0.000000000000    15.994914619560
           O         -0.771351201989     0.177730038922     0.000000000000    15.994914619560

  Running in cs symmetry.

  Rotational constants: A =      1.69275  B =      0.97270  C =      0.61773 [cm^-1]
  Rotational constants: A =  50747.24975  B =  29160.81167  C =  18519.17024 [MHz]
  Nuclear repulsion =   62.165685413042880

  Charge       = 0
  Multiplicity = 1
  Electrons    = 22
  Nalpha       = 11
  Nbeta        = 11

  ==> Algorithm <==

  SCF Algorithm Type is DF.
  DIIS enabled.
  MOM disabled.
  Fractional occupation disabled.
  Guess Type is READ.
  Energy threshold   = 1.00e-08
  Density threshold  = 1.00e-08
  Integral threshold = 0.00e+00

  ==> Primary Basis <==

  Basis Set: CC-PVDZ
    Number of shells: 18
    Number of basis function: 42
    Number of Cartesian functions: 45
    Spherical Harmonics?: true
    Max angular momentum: 2

  ==> Pre-Iterations <==

   -------------------------------------------------------
    Irrep   Nso     Nmo     Nalpha   Nbeta   Ndocc  Nsocc
   -------------------------------------------------------
     A'        30      30       0       0       0       0
     A"        12      12       0       0       0       0
   -------------------------------------------------------
    Total      42      42      11      11      11       0
   -------------------------------------------------------

  ==> Integral Setup <==

  ==> DFJK: Density-Fitted J/K Matrices <==

    J tasked:                  Yes
    K tasked:                  Yes
    wK tasked:                  No
    OpenMP threads:              1
    Integrals threads:           1
    Memory (MB):               178
    Algorithm:                Core
    Integral Cache:           NONE
    Schwarz Cutoff:          1E-12
    Fitting Condition:       1E-12

   => Auxiliary Basis Set <=

  Basis Set: 
    Number of shells: 72
    Number of basis function: 210
    Number of Cartesian functions: 243
    Spherical Harmonics?: true
    Max angular momentum: 3

  Minimum eigenvalue in the overlap matrix is 1.9923820559E-02.
  Using Symmetric Orthogonalization.
  SCF Guess: Reading in previously saved MOs, projecting if necessary.

  Using orbitals from previous SCF, no projection.
  Recomputing DOCC and SOCC from number of alpha and beta electrons from previous calculation.
             Ap   App 
    DOCC [     9,    2 ]

  ==> Iterations <==

                           Total Energy        Delta E     RMS |[F,P]|

   @DF-RHF iter   0:  -187.40487875647398   -1.87405e+02   1.73428e-04 
   @DF-RHF iter   1:  -187.40396842334371    9.10333e-04   4.36754e-05 
   @DF-RHF iter   2:  -187.40396914731230   -7.23969e-07   3.75138e-05 DIIS
   @DF-RHF iter   3:  -187.40396974239104   -5.95079e-07   8.91175e-06 DIIS
   @DF-RHF iter   4:  -187.40396988870157   -1.46311e-07   3.42832e-06 DIIS
   @DF-RHF iter   5:  -187.40396991705956   -2.83580e-08   1.12123e-06 DIIS
   @DF-RHF iter   6:  -187.40396991939235   -2.33280e-09   5.94874e-07 DIIS
   @DF-RHF iter   7:  -187.40396992022664   -8.34291e-10   2.74498e-07 DIIS
   @DF-RHF iter   8:  -187.40396992042974   -2.03102e-10   8.93169e-08 DIIS
   @DF-RHF iter   9:  -187.40396992045055   -2.08047e-11   1.45346e-08 DIIS
   @DF-RHF iter  10:  -187.40396992045100   -4.54747e-13   3.71822e-09 DIIS

  ==> Post-Iterations <==

    Orbital Energies (a.u.)
    -----------------------

    Doubly Occupied:                                                      

       1Ap   -20.714049     2Ap   -20.713785     3Ap   -11.417556  
       4Ap    -1.676187     5Ap    -1.271856     6Ap    -0.894748  
       1App   -0.752838     7Ap    -0.687097     8Ap    -0.660513  
       2App   -0.528805     9Ap    -0.488298  

    Virtual:                                                              

       3App    0.106523    10Ap     0.140441    11Ap     0.283713  
      12Ap     0.400363     4App    0.656468    13Ap     0.722561  
      14Ap     0.729857    15Ap     0.781832    16Ap     1.037114  
      17Ap     1.070350     5App    1.175302     6App    1.189060  
      18Ap     1.217153    19Ap     1.320247    20Ap     1.378930  
       7App    1.409479     8App    1.442475    21Ap     1.865574  
      22Ap     2.012753    23Ap     2.072980    24Ap     2.173632  
       9App    2.613463    25Ap     2.639353    26Ap     3.038607  
      10App    3.071560    27Ap     3.138081    11App    3.259664  
      12App    3.278795    28Ap     3.582527    29Ap     3.622127  
      30Ap     4.023042  

    Final Occupation by Irrep:
             Ap   App 
    DOCC [     9,    2 ]

  Energy converged.

  @DF-RHF Final Energy:  -187.40396992045100

   => Energetics <=

    Nuclear Repulsion Energy =             62.1656854130428798
    One-Electron Energy =                -379.5278480812039561
    Two-Electron Energy =                 129.9581927477101715
    DFT Exchange-Correlation Energy =       0.0000000000000000
    Empirical Dispersion Energy =           0.0000000000000000
    PCM Polarization Energy =               0.0000000000000000
    EFP Energy =                            0.0000000000000000
    Total Energy =                       -187.4039699204509191


  Saving occupied orbitals to File 180.

*** tstop() called on Takums-iMac.local at Mon Jan 30 15:06:42 2017
Module time:
	user time   =       0.33 seconds =       0.01 minutes
	system time =       0.01 seconds =       0.00 minutes
	total time  =          0 seconds =       0.00 minutes
Total time:
	user time   =      13.65 seconds =       0.23 minutes
	system time =       0.45 seconds =       0.01 minutes
	total time  =         15 seconds =       0.25 minutes


Properties will be evaluated at   0.000000,   0.000000,   0.000000 Bohr

Properties computed using the SCF density matrix

  Nuclear Dipole Moment: (a.u.)
     X:    -0.0016      Y:    -0.0023      Z:     0.0000

  Electronic Dipole Moment: (a.u.)
     X:     0.0515      Y:     0.0751      Z:     0.0000

  Dipole Moment: (a.u.)
     X:     0.0499      Y:     0.0728      Z:     0.0000     Total:     0.0883

  Dipole Moment: (Debye)
     X:     0.1268      Y:     0.1851      Z:     0.0000     Total:     0.2244


*** tstart() called on Takums-iMac.local
*** at Mon Jan 30 15:06:42 2017


         ------------------------------------------------------------
                                   SCF GRAD                          
                          Rob Parrish, Justin Turney,                
                       Andy Simmonett, and Alex Sokolov              
         ------------------------------------------------------------

  ==> Geometry <==

    Molecular point group: cs
    Full point group: Cs

    Geometry (in Angstrom), charge = 0, multiplicity = 1:

       Center              X                  Y                   Z               Mass       
    ------------   -----------------  -----------------  -----------------  -----------------
           C          0.440712064501     0.639750767228     0.000000000000    12.000000000000
           O          0.440712064501    -0.657695664831     0.000000000000    15.994914619560
           O         -0.771351201989     0.177730038922     0.000000000000    15.994914619560

  Nuclear repulsion =   62.165685413042880

  ==> Basis Set <==

  Basis Set: CC-PVDZ
    Number of shells: 18
    Number of basis function: 42
    Number of Cartesian functions: 45
    Spherical Harmonics?: true
    Max angular momentum: 2

  ==> DFJKGrad: Density-Fitted SCF Gradients <==

    Gradient:                    1
    J tasked:                  Yes
    K tasked:                  Yes
    wK tasked:                  No
    OpenMP threads:              1
    Integrals threads:           1
    Memory (MB):               178
    Schwarz Cutoff:          0E+00
    Fitting Condition:       1E-12

   => Auxiliary Basis Set <=

  Basis Set: 
    Number of shells: 72
    Number of basis function: 210
    Number of Cartesian functions: 243
    Spherical Harmonics?: true
    Max angular momentum: 3


  -Total Gradient:
     Atom            X                  Y                   Z
    ------   -----------------  -----------------  -----------------
       1        0.000151629887     0.000296656370     0.000000000000
       2        0.000065790476    -0.000284208226     0.000000000000
       3       -0.000217420361    -0.000012448143     0.000000000000


*** tstop() called on Takums-iMac.local at Mon Jan 30 15:06:43 2017
Module time:
	user time   =       0.66 seconds =       0.01 minutes
	system time =       0.02 seconds =       0.00 minutes
	total time  =          1 seconds =       0.02 minutes
Total time:
	user time   =      14.31 seconds =       0.24 minutes
	system time =       0.47 seconds =       0.01 minutes
	total time  =         16 seconds =       0.27 minutes

			-----------------------------------------
			 OPTKING 2.0: for geometry optimizations 
			  - R.A. King,  Bethel University        
			-----------------------------------------

	Previous internal coordinate definitions found.
	---Fragment 1 Geometry and Gradient---
	 C           0.8328251054        1.2089537434        0.0000000000
	 O           0.8328251054       -1.2428646853        0.0000000000
	 O          -1.4576425240        0.3358610992        0.0000000000
	             0.0001516299        0.0002966564        0.0000000000
	             0.0000657905       -0.0002842082        0.0000000000
	            -0.0002174204       -0.0000124481        0.0000000000

	---Fragment 1 Intrafragment Coordinates---
	 - Coordinate -           - BOHR/RAD -       - ANG/DEG -
	 R(1,2)           =         2.451818	       1.297446
	 R(1,3)           =         2.451231	       1.297136
	 R(2,3)           =         2.781837	       1.472085
	 B(1,2,3)         =         0.967315	      55.423091
	 B(1,3,2)         =         0.967663	      55.443022
	 B(2,1,3)         =         1.206614	      69.133888

	Current energy   :      -187.4039699205

	Energy change for the previous step:
		Projected    :        -0.0000003930
		Actual       :        -0.0000016585
	Energy ratio indicates good step: Trust radius increased to 4.688e-02.


	Performing BFGS update.
	Previous computed or guess Hessian on step 1.
	Steps to be used in Hessian update: 12 11
	Taking RFO optimization step.
	Going to follow RFO solution 1.
	Using RFO vector 1.
	Norm of target step-size    0.00077
	Projected energy change by RFO approximation:        -0.0000001089

	Back-transformation to cartesian coordinates...
	Successfully converged to displaced geometry.

	--- Internal Coordinate Step in ANG or DEG, aJ/ANG or AJ/DEG ---
	 ---------------------------------------------------------------------------
	   Coordinate                Previous        Force       Change         New 
	   ----------                --------       ------       ------       ------
	    1 R(1,2)          =      1.297446    -0.001728    -0.000350     1.297097
	    2 R(1,3)          =      1.297136    -0.001260    -0.000008     1.297127
	    3 R(2,3)          =      1.472085    -0.000937    -0.000154     1.471931
	    4 B(1,2,3)        =     55.423091    -0.000000     0.009634    55.432724
	    5 B(1,3,2)        =     55.443022    -0.000003    -0.012260    55.430762
	    6 B(2,1,3)        =     69.133888     0.000003     0.002626    69.136514
	 ---------------------------------------------------------------------------

  ==> Convergence Check <==

  Measures of convergence in internal coordinates in au.
  Criteria marked as inactive (o), active & met (*), and active & unmet ( ).
  ---------------------------------------------------------------------------------------------
   Step     Total Energy     Delta E     MAX Force     RMS Force      MAX Disp      RMS Disp   
  ---------------------------------------------------------------------------------------------
    Convergence Criteria    1.00e-06 *    3.00e-04 *             o    1.20e-03 *             o
  ---------------------------------------------------------------------------------------------
     13    -187.40396992   -1.66e-06      2.10e-04 *    1.18e-04 o    6.61e-04 *    3.16e-04 o  ~
  ---------------------------------------------------------------------------------------------


  **** Optimization is complete! (in 13 steps) ****

  ==> Optimization Summary <==

  Measures of convergence in internal coordinates in au.
  --------------------------------------------------------------------------------------------------------------- ~
   Step         Total Energy             Delta E       MAX Force       RMS Force        MAX Disp        RMS Disp  ~
  --------------------------------------------------------------------------------------------------------------- ~
      1    -187.165950828463   -187.165950828463      0.71251166      0.34663709      0.21058732      0.13724134  ~
      2    -187.330373809711     -0.164422981248      0.29975020      0.14412584      0.17641400      0.13619041  ~
      3    -187.387823377773     -0.057449568062      0.10994282      0.05106636      0.10170498      0.07712314  ~
      4    -187.397214262132     -0.009390884358      0.04306949      0.01962026      0.02985096      0.01891512  ~
      5    -187.398261015504     -0.001046753373      0.02375278      0.01236129      0.01970390      0.01284216  ~
      6    -187.399086918631     -0.000825903127      0.01523921      0.00972123      0.12099968      0.06890215  ~
      7    -187.401984911233     -0.002897992602      0.01413969      0.00804814      0.16838440      0.09090187  ~
      8    -187.403644407227     -0.001659495994      0.00710938      0.00518176      0.05155507      0.02952494  ~
      9    -187.403885808167     -0.000241400939      0.00605214      0.00320704      0.04013405      0.02083175  ~
     10    -187.403938206684     -0.000052398517      0.00222403      0.00110807      0.01151220      0.00637887  ~
     11    -187.403964276007     -0.000026069323      0.00116714      0.00054701      0.00376464      0.00248991  ~
     12    -187.403968261982     -0.000003985975      0.00085796      0.00043631      0.00294786      0.00151298  ~
     13    -187.403969920451     -0.000001658469      0.00020970      0.00011833      0.00066089      0.00031571  ~
  --------------------------------------------------------------------------------------------------------------- ~

	Writing optimization data to binary file.
	Final energy is   -187.4039699204510
	Final (previous) structure:
	Cartesian Geometry (in Angstrom)
	    C     0.4407120645   0.6397507672   0.0000000000
	    O     0.4407120645  -0.6576956648   0.0000000000
	    O    -0.7713512020   0.1777300389   0.0000000000
	Saving final (previous) structure.
			--------------------------
			 OPTKING Finished Execution 
			--------------------------

    Final optimized geometry and variables:
    Molecular point group: cs
    Full point group: Cs

    Geometry (in Angstrom), charge = 0, multiplicity = 1:

    C       
    O             1    1.297446
    O             1    1.297136      2   69.133888

	Cleaning optimization helper files.

*** Psi4 exiting successfully. Buy a developer a beer!
