    -----------------------------------------------------------------------
          Psi4: An Open-Source Ab Initio Electronic Structure Package
                              Psi4 1.0.0 Driver

                          Git: Rev {master} 6a9a71b 

    J. M. Turney, A. C. Simmonett, R. M. Parrish, E. G. Hohenstein,
    F. A. Evangelista, J. T. Fermann, B. J. Mintz, L. A. Burns, J. J. Wilke,
    M. L. Abrams, N. J. Russ, M. L. Leininger, C. L. Janssen, E. T. Seidl,
    W. D. Allen, H. F. Schaefer, R. A. King, E. F. Valeev, C. D. Sherrill,
    and T. D. Crawford, WIREs Comput. Mol. Sci. 2, 556-565 (2012)
    (doi: 10.1002/wcms.93)

                         Additional Contributions by
    A. E. DePrince, U. Bozkaya, A. Yu. Sokolov, D. G. A. Smith, R. Di Remigio,
    R. M. Richard, J. F. Gonthier, H. R. McAlexander, M. Saitow, and
    B. P. Pritchard
    -----------------------------------------------------------------------


    Psi4 started on: Mon Jan 30 18:25:21 2017

    Process ID:  10834
    PSI4DATADIR: /Users/equipo/miniconda/share/psi4
    Memory level set to 256.000 MB

  ==> Input File <==

--------------------------------------------------------------------------
import math
from angle import angle, dotproduct, length
import numpy
memory 250 mb

molecule co2 {
  C 
  O 1 1.20
  O 1 1.20 2 A
}

Avals = numpy.asarray(range(11,18))*10

set basis cc-pVDZ
for A in Avals:
  if A != 90:
    co2.A = A
    print "Initial geometry for A = ", A, " := \n" , mat2arr(co2.geometry()), "\n\n"
    op, wfn = optimize('hf', return_wfn=True, molecule=co2)
    if A == 120:
        molden(wfn, "op.molden", density_a=wfn.Da())

    geo = mat2arr(co2.geometry())
    print "Optimized geometry := \n" , geo, "\n\n"

    c_pos = numpy.asarray(geo[0])
    print "position of carbon atom := ", c_pos  
    o1_pos = numpy.asarray(geo[1])
    print "position of first oxygen atom := ", o1_pos  
    o2_pos = numpy.asarray(geo[2])
    print "position of second oxygen atom := ", o2_pos  

    u = c_pos - o1_pos
    print "first vector", u
    v = c_pos - o2_pos
    print "second vector", v
    distance_co2 = length(v)
    print "C-O bond lenght", distance_co2 , " Bohr = ", distance_co2 * 0.529177249 , " Angstrom"
    angle_co2 = angle(u,v) 
    print "CO2 molecule angle", angle_co2 --------------------------------------------------------------------------

  Memory set to 250.000 MiB by Python script.
Setting geometry variable A to 110.000000
gradient() will perform analytic gradient computation.
    There are an even number of electrons - assuming singlet.
    Specify the multiplicity in the molecule input block.


*** tstart() called on Takums-iMac.local
*** at Mon Jan 30 18:25:24 2017


         ---------------------------------------------------------
                                   SCF
            by Justin Turney, Rob Parrish, and Andy Simmonett
                              RHF Reference
                        1 Threads,    250 MiB Core
         ---------------------------------------------------------

  ==> Geometry <==

    Molecular point group: c2v
    Full point group: C2v

    Geometry (in Angstrom), charge = 0, multiplicity = 1:

       Center              X                  Y                   Z               Mass       
    ------------   -----------------  -----------------  -----------------  -----------------
           C          0.000000000000     0.000000000000    -0.500532397743    12.000000000000
           O          0.000000000000    -0.982982453147     0.187759325879    15.994914619560
           O          0.000000000000     0.982982453147     0.187759325879    15.994914619560

  Running in c2v symmetry.

  Rotational constants: A =      4.07766  B =      0.54537  C =      0.48104 [cm^-1]
  Rotational constants: A = 122245.02944  B =  16349.84889  C =  14421.07950 [MHz]
  Nuclear repulsion =   59.561005732490472

  Charge       = 0
  Multiplicity = 1
  Electrons    = 22
  Nalpha       = 11
  Nbeta        = 11

  ==> Algorithm <==

  SCF Algorithm Type is DF.
  DIIS enabled.
  MOM disabled.
  Fractional occupation disabled.
  Guess Type is SAD.
  Energy threshold   = 1.00e-08
  Density threshold  = 1.00e-08
  Integral threshold = 0.00e+00

  ==> Primary Basis <==

  Basis Set: CC-PVDZ
    Number of shells: 18
    Number of basis function: 42
    Number of Cartesian functions: 45
    Spherical Harmonics?: true
    Max angular momentum: 2

  ==> Pre-Iterations <==

   -------------------------------------------------------
    Irrep   Nso     Nmo     Nalpha   Nbeta   Ndocc  Nsocc
   -------------------------------------------------------
     A1        17      17       0       0       0       0
     A2         5       5       0       0       0       0
     B1         7       7       0       0       0       0
     B2        13      13       0       0       0       0
   -------------------------------------------------------
    Total      42      42      11      11      11       0
   -------------------------------------------------------

  ==> Integral Setup <==

  ==> DFJK: Density-Fitted J/K Matrices <==

    J tasked:                  Yes
    K tasked:                  Yes
    wK tasked:                  No
    OpenMP threads:              1
    Integrals threads:           1
    Memory (MB):               178
    Algorithm:                Core
    Integral Cache:           NONE
    Schwarz Cutoff:          1E-12
    Fitting Condition:       1E-12

   => Auxiliary Basis Set <=

  Basis Set: 
    Number of shells: 72
    Number of basis function: 210
    Number of Cartesian functions: 243
    Spherical Harmonics?: true
    Max angular momentum: 3

  Minimum eigenvalue in the overlap matrix is 1.5566157608E-02.
  Using Symmetric Orthogonalization.
  SCF Guess: Superposition of Atomic Densities via on-the-fly atomic UHF.

  ==> Iterations <==

                           Total Energy        Delta E     RMS |[F,P]|

   @DF-RHF iter   0:  -188.94579718665079   -1.88946e+02   1.48179e-01 
   @DF-RHF iter   1:  -187.34504500530272    1.60075e+00   2.05180e-02 
   @DF-RHF iter   2:  -187.40353366621309   -5.84887e-02   1.47318e-02 DIIS
   @DF-RHF iter   3:  -187.44847875933920   -4.49451e-02   2.26281e-03 DIIS
   @DF-RHF iter   4:  -187.44987964103507   -1.40088e-03   6.26797e-04 DIIS
   @DF-RHF iter   5:  -187.45024939692479   -3.69756e-04   1.91482e-04 DIIS
   @DF-RHF iter   6:  -187.45028785487142   -3.84579e-05   4.37725e-05 DIIS
   @DF-RHF iter   7:  -187.45028991616829   -2.06130e-06   1.33843e-05 DIIS
   @DF-RHF iter   8:  -187.45029009877368   -1.82605e-07   3.95735e-06 DIIS
   @DF-RHF iter   9:  -187.45029011799755   -1.92239e-08   1.37422e-06 DIIS
   @DF-RHF iter  10:  -187.45029011964380   -1.64624e-09   3.07328e-07 DIIS
   @DF-RHF iter  11:  -187.45029011969859   -5.47971e-11   4.76218e-08 DIIS
   @DF-RHF iter  12:  -187.45029011969973   -1.13687e-12   3.86426e-09 DIIS

  ==> Post-Iterations <==

    Orbital Energies (a.u.)
    -----------------------

    Doubly Occupied:                                                      

       1B2   -20.630920     1A1   -20.630826     2A1   -11.473868  
       3A1    -1.540259     2B2    -1.377787     4A1    -0.792239  
       3B2    -0.690302     1B1    -0.688797     5A1    -0.686903  
       1A2    -0.500635     4B2    -0.456469  

    Virtual:                                                              

       6A1    -0.036726     2B1     0.162182     5B2     0.392809  
       7A1     0.423267     3B1     0.604038     8A1     0.629806  
       6B2     0.815001     9A1     0.896197     7B2     1.071660  
      10A1     1.093412    11A1     1.192242     2A2     1.216398  
       4B1     1.271271     8B2     1.376056     5B1     1.396224  
       3A2     1.442989    12A1     1.479033    13A1     1.901043  
       9B2     1.910774    14A1     2.056446    10B2     2.362521  
       4A2     2.916758     6B1     2.925161    15A1     3.003396  
      11B2     3.034703    12B2     3.149204     7B1     3.380771  
       5A2     3.432415    13B2     3.717084    16A1     3.730538  
      17A1     3.863285  

    Final Occupation by Irrep:
             A1    A2    B1    B2 
    DOCC [     5,    1,    1,    4 ]

  Energy converged.

  @DF-RHF Final Energy:  -187.45029011969973

   => Energetics <=

    Nuclear Repulsion Energy =             59.5610057324904716
    One-Electron Energy =                -375.0845810061462089
    Two-Electron Energy =                 128.0732851539559647
    DFT Exchange-Correlation Energy =       0.0000000000000000
    Empirical Dispersion Energy =           0.0000000000000000
    PCM Polarization Energy =               0.0000000000000000
    EFP Energy =                            0.0000000000000000
    Total Energy =                       -187.4502901196997868


  Saving occupied orbitals to File 180.

*** tstop() called on Takums-iMac.local at Mon Jan 30 18:25:25 2017
Module time:
	user time   =       0.53 seconds =       0.01 minutes
	system time =       0.16 seconds =       0.00 minutes
	total time  =          1 seconds =       0.02 minutes
Total time:
	user time   =       0.53 seconds =       0.01 minutes
	system time =       0.16 seconds =       0.00 minutes
	total time  =          1 seconds =       0.02 minutes


Properties will be evaluated at   0.000000,   0.000000,   0.000000 Bohr

Properties computed using the SCF density matrix

  Nuclear Dipole Moment: (a.u.)
     X:     0.0000      Y:     0.0000      Z:     0.0018

  Electronic Dipole Moment: (a.u.)
     X:     0.0000      Y:     0.0000      Z:    -0.8405

  Dipole Moment: (a.u.)
     X:     0.0000      Y:     0.0000      Z:    -0.8387     Total:     0.8387

  Dipole Moment: (Debye)
     X:     0.0000      Y:     0.0000      Z:    -2.1318     Total:     2.1318


*** tstart() called on Takums-iMac.local
*** at Mon Jan 30 18:25:25 2017


         ------------------------------------------------------------
                                   SCF GRAD                          
                          Rob Parrish, Justin Turney,                
                       Andy Simmonett, and Alex Sokolov              
         ------------------------------------------------------------

  ==> Geometry <==

    Molecular point group: c2v
    Full point group: C2v

    Geometry (in Angstrom), charge = 0, multiplicity = 1:

       Center              X                  Y                   Z               Mass       
    ------------   -----------------  -----------------  -----------------  -----------------
           C          0.000000000000     0.000000000000    -0.500532397743    12.000000000000
           O          0.000000000000    -0.982982453147     0.187759325879    15.994914619560
           O          0.000000000000     0.982982453147     0.187759325879    15.994914619560

  Nuclear repulsion =   59.561005732490472

  ==> Basis Set <==

  Basis Set: CC-PVDZ
    Number of shells: 18
    Number of basis function: 42
    Number of Cartesian functions: 45
    Spherical Harmonics?: true
    Max angular momentum: 2

  ==> DFJKGrad: Density-Fitted SCF Gradients <==

    Gradient:                    1
    J tasked:                  Yes
    K tasked:                  Yes
    wK tasked:                  No
    OpenMP threads:              1
    Integrals threads:           1
    Memory (MB):               178
    Schwarz Cutoff:          0E+00
    Fitting Condition:       1E-12

   => Auxiliary Basis Set <=

  Basis Set: 
    Number of shells: 72
    Number of basis function: 210
    Number of Cartesian functions: 243
    Spherical Harmonics?: true
    Max angular momentum: 3


  -Total Gradient:
     Atom            X                  Y                   Z
    ------   -----------------  -----------------  -----------------
       1       -0.000000000000     0.000000000000    -0.278096836904
       2       -0.000000000000     0.118472233690     0.139048418452
       3        0.000000000000    -0.118472233690     0.139048418452


*** tstop() called on Takums-iMac.local at Mon Jan 30 18:25:26 2017
Module time:
	user time   =       0.66 seconds =       0.01 minutes
	system time =       0.06 seconds =       0.00 minutes
	total time  =          1 seconds =       0.02 minutes
Total time:
	user time   =       1.20 seconds =       0.02 minutes
	system time =       0.22 seconds =       0.00 minutes
	total time  =          2 seconds =       0.03 minutes

			-----------------------------------------
			 OPTKING 2.0: for geometry optimizations 
			  - R.A. King,  Bethel University        
			-----------------------------------------

	Previous internal coordinate definitions found.
	---Fragment 1 Geometry and Gradient---
	 C           0.0000000000        0.0000000000       -0.9458691524
	 O           0.0000000000       -1.8575676299        0.3548137048
	 O           0.0000000000        1.8575676299        0.3548137048
	            -0.0000000000        0.0000000000       -0.2780968369
	            -0.0000000000        0.1184722337        0.1390484185
	             0.0000000000       -0.1184722337        0.1390484185

	Previous optimization step data not found.  Starting new optimization.

	---Fragment 1 Intrafragment Coordinates---
	 - Coordinate -           - BOHR/RAD -       - ANG/DEG -
	 R(1,2)           =         2.267671	       1.200000
	 R(1,3)           =         2.267671	       1.200000
	 R(2,3)           =         3.715135	       1.965965
	 B(1,2,3)         =         0.610865	      35.000000
	 B(1,3,2)         =         0.610865	      35.000000
	 B(2,1,3)         =         1.919862	     110.000000

	Current energy   :      -187.4502901197

	Generating empirical Hessian (Schlegel '84) for each fragment.
	Taking RFO optimization step.
	Going to follow RFO solution 1.
	Using RFO vector 1.

	Determining step-restricting scale parameter for RS-RFO.
	Maximum step size allowed    0.50000

	 Iter      |step|        alpha        rfo_root  
	------------------------------------------------
	    0     0.67751       1.00000           1
	    1     0.55196       1.78357           1
	    2     0.50681       2.23440           1
	    3     0.50014       2.31239           1
	    4     0.50000       2.31413           1
	------------------------------------------------
	Norm of target step-size    0.50000
	Projected energy change by RFO approximation:        -0.1411235328

	Back-transformation to cartesian coordinates...
	Successfully converged to displaced geometry.

	--- Internal Coordinate Step in ANG or DEG, aJ/ANG or AJ/DEG ---
	 ---------------------------------------------------------------------------
	   Coordinate                Previous        Force       Change         New 
	   ----------                --------       ------       ------       ------
	    1 R(1,2)          =      1.200000    -0.608134    -0.023655     1.176345
	    2 R(1,3)          =      1.200000    -0.608134    -0.023655     1.176345
	    3 R(2,3)          =      1.965965     0.916310     0.154054     2.120019
	    4 B(1,2,3)        =     35.000000    -0.006791    -9.303603    25.696397
	    5 B(1,3,2)        =     35.000000    -0.006791    -9.303603    25.696397
	    6 B(2,1,3)        =    110.000000     0.013581    18.607206   128.607206
	 ---------------------------------------------------------------------------

  ==> Convergence Check <==

  Measures of convergence in internal coordinates in au.
  Criteria marked as inactive (o), active & met (*), and active & unmet ( ).
  --------------------------------------------------------------------------------------------- ~
   Step     Total Energy     Delta E     MAX Force     RMS Force      MAX Disp      RMS Disp    ~
  --------------------------------------------------------------------------------------------- ~
    Convergence Criteria    1.00e-06 *    3.00e-04 *             o    1.20e-03 *             o  ~
  --------------------------------------------------------------------------------------------- ~
      1    -187.45029012   -1.87e+02      1.78e-01      1.09e-01 o    3.25e-01      2.03e-01 o  ~
  ---------------------------------------------------------------------------------------------

	Writing optimization data to binary file.
	Structure for next step:
	Cartesian Geometry (in Angstrom)
	    C     0.0000000000   0.0000000000  -0.3817152103
	    O     0.0000000000  -1.0600093218   0.1283507321
	    O     0.0000000000   1.0600093218   0.1283507321
			--------------------------
			 OPTKING Finished Execution 
			--------------------------

    Structure for next step:
    Molecular point group: c2v
    Full point group: C2v

    Geometry (in Angstrom), charge = 0, multiplicity = 1:

    C       
    O             1    1.176345
    O             1    1.176345      2           A

    A         =  128.6072058623

gradient() will perform analytic gradient computation.

*** tstart() called on Takums-iMac.local
*** at Mon Jan 30 18:25:26 2017


         ---------------------------------------------------------
                                   SCF
            by Justin Turney, Rob Parrish, and Andy Simmonett
                              RHF Reference
                        1 Threads,    250 MiB Core
         ---------------------------------------------------------

  ==> Geometry <==

    Molecular point group: c2v
    Full point group: C2v

    Geometry (in Angstrom), charge = 0, multiplicity = 1:

       Center              X                  Y                   Z               Mass       
    ------------   -----------------  -----------------  -----------------  -----------------
           C          0.000000000000     0.000000000000    -0.370924886045    12.000000000000
           O          0.000000000000    -1.060009321799     0.139141056342    15.994914619560
           O          0.000000000000     1.060009321799     0.139141056342    15.994914619560

  Running in c2v symmetry.

  Rotational constants: A =      7.42511  B =      0.46899  C =      0.44113 [cm^-1]
  Rotational constants: A = 222599.22698  B =  14060.01892  C =  13224.70767 [MHz]
  Nuclear repulsion =   59.160499085192448

  Charge       = 0
  Multiplicity = 1
  Electrons    = 22
  Nalpha       = 11
  Nbeta        = 11

  ==> Algorithm <==

  SCF Algorithm Type is DF.
  DIIS enabled.
  MOM disabled.
  Fractional occupation disabled.
  Guess Type is READ.
  Energy threshold   = 1.00e-08
  Density threshold  = 1.00e-08
  Integral threshold = 0.00e+00

  ==> Primary Basis <==

  Basis Set: CC-PVDZ
    Number of shells: 18
    Number of basis function: 42
    Number of Cartesian functions: 45
    Spherical Harmonics?: true
    Max angular momentum: 2

  ==> Pre-Iterations <==

   -------------------------------------------------------
    Irrep   Nso     Nmo     Nalpha   Nbeta   Ndocc  Nsocc
   -------------------------------------------------------
     A1        17      17       0       0       0       0
     A2         5       5       0       0       0       0
     B1         7       7       0       0       0       0
     B2        13      13       0       0       0       0
   -------------------------------------------------------
    Total      42      42      11      11      11       0
   -------------------------------------------------------

  ==> Integral Setup <==

  ==> DFJK: Density-Fitted J/K Matrices <==

    J tasked:                  Yes
    K tasked:                  Yes
    wK tasked:                  No
    OpenMP threads:              1
    Integrals threads:           1
    Memory (MB):               178
    Algorithm:                Core
    Integral Cache:           NONE
    Schwarz Cutoff:          1E-12
    Fitting Condition:       1E-12

   => Auxiliary Basis Set <=

  Basis Set: 
    Number of shells: 72
    Number of basis function: 210
    Number of Cartesian functions: 243
    Spherical Harmonics?: true
    Max angular momentum: 3

  Minimum eigenvalue in the overlap matrix is 1.5569490666E-02.
  Using Symmetric Orthogonalization.
  SCF Guess: Reading in previously saved MOs, projecting if necessary.

  Using orbitals from previous SCF, no projection.
  Recomputing DOCC and SOCC from number of alpha and beta electrons from previous calculation.
             A1    A2    B1    B2 
    DOCC [     5,    1,    1,    4 ]

  ==> Iterations <==

                           Total Energy        Delta E     RMS |[F,P]|

   @DF-RHF iter   0:  -187.62585897729605   -1.87626e+02   2.07965e-02 
   @DF-RHF iter   1:  -187.54741988447097    7.84391e-02   3.49300e-03 
   @DF-RHF iter   2:  -187.55204750666513   -4.62762e-03   1.78952e-03 DIIS
   @DF-RHF iter   3:  -187.55289356956234   -8.46063e-04   7.02562e-04 DIIS
   @DF-RHF iter   4:  -187.55320510915010   -3.11540e-04   3.10160e-04 DIIS
   @DF-RHF iter   5:  -187.55325569907507   -5.05899e-05   8.21653e-05 DIIS
   @DF-RHF iter   6:  -187.55326316088681   -7.46181e-06   1.49058e-05 DIIS
   @DF-RHF iter   7:  -187.55326336025854   -1.99372e-07   3.69304e-06 DIIS
   @DF-RHF iter   8:  -187.55326336832846   -8.06992e-09   9.57936e-07 DIIS
   @DF-RHF iter   9:  -187.55326336885577   -5.27308e-10   1.97560e-07 DIIS
   @DF-RHF iter  10:  -187.55326336888695   -3.11786e-11   4.17214e-08 DIIS
   @DF-RHF iter  11:  -187.55326336888845   -1.50635e-12   6.95797e-09 DIIS

  ==> Post-Iterations <==

    Orbital Energies (a.u.)
    -----------------------

    Doubly Occupied:                                                      

       1B2   -20.640310     1A1   -20.640240     2A1   -11.468916  
       3A1    -1.536346     2B2    -1.424935     4A1    -0.793164  
       3B2    -0.713832     1B1    -0.698465     5A1    -0.695948  
       1A2    -0.517198     4B2    -0.495312  

    Virtual:                                                              

       6A1     0.023435     2B1     0.189308     7A1     0.424399  
       5B2     0.430850     3B1     0.602374     8A1     0.609915  
       9A1     0.865321     6B2     0.910156    10A1     1.070911  
       7B2     1.092955     2A2     1.176839    11A1     1.224594  
       4B1     1.298947     8B2     1.304000     5B1     1.360230  
      12A1     1.372669     3A2     1.502190     9B2     1.948893  
      13A1     2.044884    14A1     2.196575    10B2     2.293945  
       4A2     2.887783    11B2     2.917213     6B1     2.944104  
      15A1     3.021923     7B1     3.315492    12B2     3.354102  
       5A2     3.584903    16A1     3.775207    13B2     3.800574  
      17A1     3.850722  

    Final Occupation by Irrep:
             A1    A2    B1    B2 
    DOCC [     5,    1,    1,    4 ]

  Energy converged.

  @DF-RHF Final Energy:  -187.55326336888845

   => Energetics <=

    Nuclear Repulsion Energy =             59.1604990851924484
    One-Electron Energy =                -374.1781923817968618
    Two-Electron Energy =                 127.4644299277159405
    DFT Exchange-Correlation Energy =       0.0000000000000000
    Empirical Dispersion Energy =           0.0000000000000000
    PCM Polarization Energy =               0.0000000000000000
    EFP Energy =                            0.0000000000000000
    Total Energy =                       -187.5532633688884800


  Saving occupied orbitals to File 180.

*** tstop() called on Takums-iMac.local at Mon Jan 30 18:25:27 2017
Module time:
	user time   =       0.34 seconds =       0.01 minutes
	system time =       0.24 seconds =       0.00 minutes
	total time  =          1 seconds =       0.02 minutes
Total time:
	user time   =       1.63 seconds =       0.03 minutes
	system time =       0.48 seconds =       0.01 minutes
	total time  =          3 seconds =       0.05 minutes


Properties will be evaluated at   0.000000,   0.000000,   0.000000 Bohr

Properties computed using the SCF density matrix

  Nuclear Dipole Moment: (a.u.)
     X:     0.0000      Y:     0.0000      Z:     0.0013

  Electronic Dipole Moment: (a.u.)
     X:     0.0000      Y:     0.0000      Z:    -0.6728

  Dipole Moment: (a.u.)
     X:     0.0000      Y:     0.0000      Z:    -0.6715     Total:     0.6715

  Dipole Moment: (Debye)
     X:     0.0000      Y:     0.0000      Z:    -1.7067     Total:     1.7067


*** tstart() called on Takums-iMac.local
*** at Mon Jan 30 18:25:27 2017


         ------------------------------------------------------------
                                   SCF GRAD                          
                          Rob Parrish, Justin Turney,                
                       Andy Simmonett, and Alex Sokolov              
         ------------------------------------------------------------

  ==> Geometry <==

    Molecular point group: c2v
    Full point group: C2v

    Geometry (in Angstrom), charge = 0, multiplicity = 1:

       Center              X                  Y                   Z               Mass       
    ------------   -----------------  -----------------  -----------------  -----------------
           C          0.000000000000     0.000000000000    -0.370924886045    12.000000000000
           O          0.000000000000    -1.060009321799     0.139141056342    15.994914619560
           O          0.000000000000     1.060009321799     0.139141056342    15.994914619560

  Nuclear repulsion =   59.160499085192448

  ==> Basis Set <==

  Basis Set: CC-PVDZ
    Number of shells: 18
    Number of basis function: 42
    Number of Cartesian functions: 45
    Spherical Harmonics?: true
    Max angular momentum: 2

  ==> DFJKGrad: Density-Fitted SCF Gradients <==

    Gradient:                    1
    J tasked:                  Yes
    K tasked:                  Yes
    wK tasked:                  No
    OpenMP threads:              1
    Integrals threads:           1
    Memory (MB):               178
    Schwarz Cutoff:          0E+00
    Fitting Condition:       1E-12

   => Auxiliary Basis Set <=

  Basis Set: 
    Number of shells: 72
    Number of basis function: 210
    Number of Cartesian functions: 243
    Spherical Harmonics?: true
    Max angular momentum: 3


  -Total Gradient:
     Atom            X                  Y                   Z
    ------   -----------------  -----------------  -----------------
       1        0.000000000000     0.000000000000    -0.206240174611
       2       -0.000000000000     0.034369122769     0.103120087305
       3        0.000000000000    -0.034369122769     0.103120087305


*** tstop() called on Takums-iMac.local at Mon Jan 30 18:25:27 2017
Module time:
	user time   =       0.65 seconds =       0.01 minutes
	system time =       0.06 seconds =       0.00 minutes
	total time  =          0 seconds =       0.00 minutes
Total time:
	user time   =       2.29 seconds =       0.04 minutes
	system time =       0.54 seconds =       0.01 minutes
	total time  =          3 seconds =       0.05 minutes

			-----------------------------------------
			 OPTKING 2.0: for geometry optimizations 
			  - R.A. King,  Bethel University        
			-----------------------------------------

	Previous internal coordinate definitions found.
	---Fragment 1 Geometry and Gradient---
	 C           0.0000000000        0.0000000000       -0.7009464505
	 O           0.0000000000       -2.0031273165        0.2629384903
	 O           0.0000000000        2.0031273165        0.2629384903
	             0.0000000000        0.0000000000       -0.2062401746
	            -0.0000000000        0.0343691228        0.1031200873
	             0.0000000000       -0.0343691228        0.1031200873

	---Fragment 1 Intrafragment Coordinates---
	 - Coordinate -           - BOHR/RAD -       - ANG/DEG -
	 R(1,2)           =         2.222969	       1.176345
	 R(1,3)           =         2.222969	       1.176345
	 R(2,3)           =         4.006255	       2.120019
	 B(1,2,3)         =         0.448487	      25.696397
	 B(1,3,2)         =         0.448487	      25.696397
	 B(2,1,3)         =         2.244619	     128.607206

	Current energy   :      -187.5532633689

	Energy change for the previous step:
		Projected    :        -0.1411235328
		Actual       :        -0.1029732492

	Performing BFGS update.
	Previous computed or guess Hessian on step 1.
	Steps to be used in Hessian update: 1
	Taking RFO optimization step.
	Going to follow RFO solution 1.
	Using RFO vector 1.

	Determining step-restricting scale parameter for RS-RFO.
	Maximum step size allowed    0.50000

	 Iter      |step|        alpha        rfo_root  
	------------------------------------------------
	    0     0.60691       1.00000           1
	    1     0.52406       1.63606           1
	    2     0.50171       1.87199           1
	    3     0.50001       1.89137           1
	------------------------------------------------
	Norm of target step-size    0.50001
	Projected energy change by RFO approximation:        -0.1147915521

	Back-transformation to cartesian coordinates...
	Successfully converged to displaced geometry.

	--- Internal Coordinate Step in ANG or DEG, aJ/ANG or AJ/DEG ---
	 ---------------------------------------------------------------------------
	   Coordinate                Previous        Force       Change         New 
	   ----------                --------       ------       ------       ------
	    1 R(1,2)          =      1.176345    -0.409085    -0.032661     1.143684
	    2 R(1,3)          =      1.176345    -0.409085    -0.032661     1.143684
	    3 R(2,3)          =      2.120019     0.328331     0.089110     2.209129
	    4 B(1,2,3)        =     25.696397    -0.005105   -10.667552    15.028845
	    5 B(1,3,2)        =     25.696397    -0.005105   -10.667552    15.028845
	    6 B(2,1,3)        =    128.607206     0.010210    21.335105   149.942310
	 ---------------------------------------------------------------------------

  ==> Convergence Check <==

  Measures of convergence in internal coordinates in au.
  Criteria marked as inactive (o), active & met (*), and active & unmet ( ).
  ---------------------------------------------------------------------------------------------
   Step     Total Energy     Delta E     MAX Force     RMS Force      MAX Disp      RMS Disp   
  ---------------------------------------------------------------------------------------------
    Convergence Criteria    1.00e-06 *    3.00e-04 *             o    1.20e-03 *             o
  ---------------------------------------------------------------------------------------------
      2    -187.55326337   -1.03e-01      1.34e-01      7.48e-02 o    3.72e-01      2.02e-01 o  ~
  ---------------------------------------------------------------------------------------------

	Writing optimization data to binary file.
	Structure for next step:
	Cartesian Geometry (in Angstrom)
	    C     0.0000000000   0.0000000000  -0.2285897295
	    O     0.0000000000  -1.1045643440   0.0679734781
	    O     0.0000000000   1.1045643440   0.0679734781
			--------------------------
			 OPTKING Finished Execution 
			--------------------------

    Structure for next step:
    Molecular point group: c2v
    Full point group: C2v

    Geometry (in Angstrom), charge = 0, multiplicity = 1:

    C       
    O             1    1.143684
    O             1    1.143684      2           A

    A         =  149.9423103760

gradient() will perform analytic gradient computation.

*** tstart() called on Takums-iMac.local
*** at Mon Jan 30 18:25:27 2017


         ---------------------------------------------------------
                                   SCF
            by Justin Turney, Rob Parrish, and Andy Simmonett
                              RHF Reference
                        1 Threads,    250 MiB Core
         ---------------------------------------------------------

  ==> Geometry <==

    Molecular point group: c2v
    Full point group: C2v

    Geometry (in Angstrom), charge = 0, multiplicity = 1:

       Center              X                  Y                   Z               Mass       
    ------------   -----------------  -----------------  -----------------  -----------------
           C          0.000000000000     0.000000000000    -0.215663632538    12.000000000000
           O          0.000000000000    -1.104564344011     0.080899575022    15.994914619560
           O          0.000000000000     1.104564344011     0.080899575022    15.994914619560

  Running in c2v symmetry.

  Rotational constants: A =     21.96449  B =      0.43192  C =      0.42359 [cm^-1]
  Rotational constants: A = 658478.74918  B =  12948.61250  C =  12698.89589 [MHz]
  Nuclear repulsion =   59.749398037638414

  Charge       = 0
  Multiplicity = 1
  Electrons    = 22
  Nalpha       = 11
  Nbeta        = 11

  ==> Algorithm <==

  SCF Algorithm Type is DF.
  DIIS enabled.
  MOM disabled.
  Fractional occupation disabled.
  Guess Type is READ.
  Energy threshold   = 1.00e-08
  Density threshold  = 1.00e-08
  Integral threshold = 0.00e+00

  ==> Primary Basis <==

  Basis Set: CC-PVDZ
    Number of shells: 18
    Number of basis function: 42
    Number of Cartesian functions: 45
    Spherical Harmonics?: true
    Max angular momentum: 2

  ==> Pre-Iterations <==

   -------------------------------------------------------
    Irrep   Nso     Nmo     Nalpha   Nbeta   Ndocc  Nsocc
   -------------------------------------------------------
     A1        17      17       0       0       0       0
     A2         5       5       0       0       0       0
     B1         7       7       0       0       0       0
     B2        13      13       0       0       0       0
   -------------------------------------------------------
    Total      42      42      11      11      11       0
   -------------------------------------------------------

  ==> Integral Setup <==

  ==> DFJK: Density-Fitted J/K Matrices <==

    J tasked:                  Yes
    K tasked:                  Yes
    wK tasked:                  No
    OpenMP threads:              1
    Integrals threads:           1
    Memory (MB):               178
    Algorithm:                Core
    Integral Cache:           NONE
    Schwarz Cutoff:          1E-12
    Fitting Condition:       1E-12

   => Auxiliary Basis Set <=

  Basis Set: 
    Number of shells: 72
    Number of basis function: 210
    Number of Cartesian functions: 243
    Spherical Harmonics?: true
    Max angular momentum: 3

  Minimum eigenvalue in the overlap matrix is 1.6456893350E-02.
  Using Symmetric Orthogonalization.
  SCF Guess: Reading in previously saved MOs, projecting if necessary.

  Using orbitals from previous SCF, no projection.
  Recomputing DOCC and SOCC from number of alpha and beta electrons from previous calculation.
             A1    A2    B1    B2 
    DOCC [     5,    1,    1,    4 ]

  ==> Iterations <==

                           Total Energy        Delta E     RMS |[F,P]|

   @DF-RHF iter   0:  -187.65575293936769   -1.87656e+02   2.44362e-02 
   @DF-RHF iter   1:  -187.61588455241974    3.98684e-02   3.02507e-03 
   @DF-RHF iter   2:  -187.61994044394487   -4.05589e-03   1.09942e-03 DIIS
   @DF-RHF iter   3:  -187.62058501847326   -6.44575e-04   3.79174e-04 DIIS
   @DF-RHF iter   4:  -187.62064159194887   -5.65735e-05   1.45237e-04 DIIS
   @DF-RHF iter   5:  -187.62065126689146   -9.67494e-06   4.41587e-05 DIIS
   @DF-RHF iter   6:  -187.62065288663854   -1.61975e-06   9.35180e-06 DIIS
   @DF-RHF iter   7:  -187.62065295711801   -7.04795e-08   2.03939e-06 DIIS
   @DF-RHF iter   8:  -187.62065295914476   -2.02675e-09   4.80475e-07 DIIS
   @DF-RHF iter   9:  -187.62065295926334   -1.18575e-10   8.83958e-08 DIIS
   @DF-RHF iter  10:  -187.62065295926800   -4.66116e-12   1.71128e-08 DIIS
   @DF-RHF iter  11:  -187.62065295926817   -1.70530e-13   2.74942e-09 DIIS

  ==> Post-Iterations <==

    Orbital Energies (a.u.)
    -----------------------

    Doubly Occupied:                                                      

       1B2   -20.641960     1A1   -20.641911     2A1   -11.458819  
       3A1    -1.544306     2B2    -1.469698     4A1    -0.791826  
       3B2    -0.733089     1B1    -0.714357     5A1    -0.712779  
       1A2    -0.530264     4B2    -0.522853  

    Virtual:                                                              

       6A1     0.112916     2B1     0.224057     7A1     0.378480  
       5B2     0.466611     3B1     0.599529     8A1     0.599860  
       9A1     0.835598     6B2     0.986656    10A1     1.055720  
       2A2     1.135454     7B2     1.155026     8B2     1.275485  
      11A1     1.284487     4B1     1.285121    12A1     1.316481  
       5B1     1.365332     3A2     1.581566     9B2     1.919296  
      13A1     1.984432    10B2     2.247231    14A1     2.599276  
       4A2     2.875050    11B2     2.877363     6B1     2.984688  
      15A1     3.037670     7B1     3.240456    16A1     3.670044  
      12B2     3.701628     5A2     3.791105    17A1     3.813148  
      13B2     3.926628  

    Final Occupation by Irrep:
             A1    A2    B1    B2 
    DOCC [     5,    1,    1,    4 ]

  Energy converged.

  @DF-RHF Final Energy:  -187.62065295926817

   => Energetics <=

    Nuclear Repulsion Energy =             59.7493980376384144
    One-Electron Energy =                -375.2163784990432305
    Two-Electron Energy =                 127.8463275021366030
    DFT Exchange-Correlation Energy =       0.0000000000000000
    Empirical Dispersion Energy =           0.0000000000000000
    PCM Polarization Energy =               0.0000000000000000
    EFP Energy =                            0.0000000000000000
    Total Energy =                       -187.6206529592682273


  Saving occupied orbitals to File 180.

*** tstop() called on Takums-iMac.local at Mon Jan 30 18:25:28 2017
Module time:
	user time   =       0.33 seconds =       0.01 minutes
	system time =       0.26 seconds =       0.00 minutes
	total time  =          1 seconds =       0.02 minutes
Total time:
	user time   =       2.71 seconds =       0.05 minutes
	system time =       0.83 seconds =       0.01 minutes
	total time  =          4 seconds =       0.07 minutes


Properties will be evaluated at   0.000000,   0.000000,   0.000000 Bohr

Properties computed using the SCF density matrix

  Nuclear Dipole Moment: (a.u.)
     X:     0.0000      Y:     0.0000      Z:     0.0008

  Electronic Dipole Moment: (a.u.)
     X:     0.0000      Y:     0.0000      Z:    -0.4202

  Dipole Moment: (a.u.)
     X:     0.0000      Y:     0.0000      Z:    -0.4195     Total:     0.4195

  Dipole Moment: (Debye)
     X:     0.0000      Y:     0.0000      Z:    -1.0662     Total:     1.0662


*** tstart() called on Takums-iMac.local
*** at Mon Jan 30 18:25:28 2017


         ------------------------------------------------------------
                                   SCF GRAD                          
                          Rob Parrish, Justin Turney,                
                       Andy Simmonett, and Alex Sokolov              
         ------------------------------------------------------------

  ==> Geometry <==

    Molecular point group: c2v
    Full point group: C2v

    Geometry (in Angstrom), charge = 0, multiplicity = 1:

       Center              X                  Y                   Z               Mass       
    ------------   -----------------  -----------------  -----------------  -----------------
           C          0.000000000000     0.000000000000    -0.215663632538    12.000000000000
           O          0.000000000000    -1.104564344011     0.080899575022    15.994914619560
           O          0.000000000000     1.104564344011     0.080899575022    15.994914619560

  Nuclear repulsion =   59.749398037638414

  ==> Basis Set <==

  Basis Set: CC-PVDZ
    Number of shells: 18
    Number of basis function: 42
    Number of Cartesian functions: 45
    Spherical Harmonics?: true
    Max angular momentum: 2

  ==> DFJKGrad: Density-Fitted SCF Gradients <==

    Gradient:                    1
    J tasked:                  Yes
    K tasked:                  Yes
    wK tasked:                  No
    OpenMP threads:              1
    Integrals threads:           1
    Memory (MB):               178
    Schwarz Cutoff:          0E+00
    Fitting Condition:       1E-12

   => Auxiliary Basis Set <=

  Basis Set: 
    Number of shells: 72
    Number of basis function: 210
    Number of Cartesian functions: 243
    Spherical Harmonics?: true
    Max angular momentum: 3


  -Total Gradient:
     Atom            X                  Y                   Z
    ------   -----------------  -----------------  -----------------
       1        0.000000000000     0.000000000000    -0.105824931811
       2       -0.000000000000     0.029603997320     0.052912465905
       3        0.000000000000    -0.029603997320     0.052912465905


*** tstop() called on Takums-iMac.local at Mon Jan 30 18:25:29 2017
Module time:
	user time   =       0.66 seconds =       0.01 minutes
	system time =       0.06 seconds =       0.00 minutes
	total time  =          1 seconds =       0.02 minutes
Total time:
	user time   =       3.38 seconds =       0.06 minutes
	system time =       0.89 seconds =       0.01 minutes
	total time  =          5 seconds =       0.08 minutes

			-----------------------------------------
			 OPTKING 2.0: for geometry optimizations 
			  - R.A. King,  Bethel University        
			-----------------------------------------

	Previous internal coordinate definitions found.
	---Fragment 1 Geometry and Gradient---
	 C           0.0000000000        0.0000000000       -0.4075452023
	 O           0.0000000000       -2.0873241063        0.1528780411
	 O           0.0000000000        2.0873241063        0.1528780411
	             0.0000000000        0.0000000000       -0.1058249318
	            -0.0000000000        0.0296039973        0.0529124659
	             0.0000000000       -0.0296039973        0.0529124659

	---Fragment 1 Intrafragment Coordinates---
	 - Coordinate -           - BOHR/RAD -       - ANG/DEG -
	 R(1,2)           =         2.161249	       1.143684
	 R(1,3)           =         2.161249	       1.143684
	 R(2,3)           =         4.174648	       2.209129
	 B(1,2,3)         =         0.262303	      15.028845
	 B(1,3,2)         =         0.262303	      15.028845
	 B(2,1,3)         =         2.616987	     149.942310

	Current energy   :      -187.6206529593

	Energy change for the previous step:
		Projected    :        -0.1147915521
		Actual       :        -0.0673895904

	Performing BFGS update.
	Previous computed or guess Hessian on step 1.
	Change in internal coordinate of 6.97e-01 exceeds limit of 5.00e-01.
	 Skipping Hessian update for step 1.
	Steps to be used in Hessian update: 2
	Taking RFO optimization step.
	Going to follow RFO solution 1.
	Using RFO vector 1.
	Norm of target step-size    0.49735
	Projected energy change by RFO approximation:        -0.0782666826

	Back-transformation to cartesian coordinates...
	Successfully converged to displaced geometry.

	--- Internal Coordinate Step in ANG or DEG, aJ/ANG or AJ/DEG ---
	 ---------------------------------------------------------------------------
	   Coordinate                Previous        Force       Change         New 
	   ----------                --------       ------       ------       ------
	    1 R(1,2)          =      1.143684    -0.074632     0.005446     1.149130
	    2 R(1,3)          =      1.143684    -0.074632     0.005446     1.149130
	    3 R(2,3)          =      2.209129     0.204132     0.083128     2.292257
	    4 B(1,2,3)        =     15.028845    -0.002870   -10.886782     4.142063
	    5 B(1,3,2)        =     15.028845    -0.002870   -10.886782     4.142063
	    6 B(2,1,3)        =    149.942310     0.005740    21.773564   171.715874
	 ---------------------------------------------------------------------------

  ==> Convergence Check <==

  Measures of convergence in internal coordinates in au.
  Criteria marked as inactive (o), active & met (*), and active & unmet ( ).
  ---------------------------------------------------------------------------------------------
   Step     Total Energy     Delta E     MAX Force     RMS Force      MAX Disp      RMS Disp   
  ---------------------------------------------------------------------------------------------
    Convergence Criteria    1.00e-06 *    3.00e-04 *             o    1.20e-03 *             o
  ---------------------------------------------------------------------------------------------
      3    -187.62065296   -6.74e-02      7.54e-02      3.94e-02 o    3.80e-01      2.01e-01 o  ~
  ---------------------------------------------------------------------------------------------

	Writing optimization data to binary file.
	Structure for next step:
	Cartesian Geometry (in Angstrom)
	    C     0.0000000000   0.0000000000  -0.0732890168
	    O     0.0000000000  -1.1461283308   0.0097122672
	    O     0.0000000000   1.1461283308   0.0097122672
			--------------------------
			 OPTKING Finished Execution 
			--------------------------

    Structure for next step:
    Molecular point group: c2v
    Full point group: C2v

    Geometry (in Angstrom), charge = 0, multiplicity = 1:

    C       
    O             1    1.149130
    O             1    1.149130      2           A

    A         =  171.7158740482

gradient() will perform analytic gradient computation.

*** tstart() called on Takums-iMac.local
*** at Mon Jan 30 18:25:29 2017


         ---------------------------------------------------------
                                   SCF
            by Justin Turney, Rob Parrish, and Andy Simmonett
                              RHF Reference
                        1 Threads,    250 MiB Core
         ---------------------------------------------------------

  ==> Geometry <==

    Molecular point group: c2v
    Full point group: C2v

    Geometry (in Angstrom), charge = 0, multiplicity = 1:

       Center              X                  Y                   Z               Mass       
    ------------   -----------------  -----------------  -----------------  -----------------
           C          0.000000000000     0.000000000000    -0.060359336388    12.000000000000
           O          0.000000000000    -1.146128330785     0.022641947578    15.994914619560
           O          0.000000000000     1.146128330785     0.022641947578    15.994914619560

  Running in c2v symmetry.

  Rotational constants: A =    280.40515  B =      0.40116  C =      0.40059 [cm^-1]
  Rotational constants: A = 8406334.80570  B =  12026.48679  C =  12009.30573 [MHz]
  Nuclear repulsion =   58.982916590001118

  Charge       = 0
  Multiplicity = 1
  Electrons    = 22
  Nalpha       = 11
  Nbeta        = 11

  ==> Algorithm <==

  SCF Algorithm Type is DF.
  DIIS enabled.
  MOM disabled.
  Fractional occupation disabled.
  Guess Type is READ.
  Energy threshold   = 1.00e-08
  Density threshold  = 1.00e-08
  Integral threshold = 0.00e+00

  ==> Primary Basis <==

  Basis Set: CC-PVDZ
    Number of shells: 18
    Number of basis function: 42
    Number of Cartesian functions: 45
    Spherical Harmonics?: true
    Max angular momentum: 2

  ==> Pre-Iterations <==

   -------------------------------------------------------
    Irrep   Nso     Nmo     Nalpha   Nbeta   Ndocc  Nsocc
   -------------------------------------------------------
     A1        17      17       0       0       0       0
     A2         5       5       0       0       0       0
     B1         7       7       0       0       0       0
     B2        13      13       0       0       0       0
   -------------------------------------------------------
    Total      42      42      11      11      11       0
   -------------------------------------------------------

  ==> Integral Setup <==

  ==> DFJK: Density-Fitted J/K Matrices <==

    J tasked:                  Yes
    K tasked:                  Yes
    wK tasked:                  No
    OpenMP threads:              1
    Integrals threads:           1
    Memory (MB):               178
    Algorithm:                Core
    Integral Cache:           NONE
    Schwarz Cutoff:          1E-12
    Fitting Condition:       1E-12

   => Auxiliary Basis Set <=

  Basis Set: 
    Number of shells: 72
    Number of basis function: 210
    Number of Cartesian functions: 243
    Spherical Harmonics?: true
    Max angular momentum: 3

  Minimum eigenvalue in the overlap matrix is 1.7754656615E-02.
  Using Symmetric Orthogonalization.
  SCF Guess: Reading in previously saved MOs, projecting if necessary.

  Using orbitals from previous SCF, no projection.
  Recomputing DOCC and SOCC from number of alpha and beta electrons from previous calculation.
             A1    A2    B1    B2 
    DOCC [     5,    1,    1,    4 ]

  ==> Iterations <==

                           Total Energy        Delta E     RMS |[F,P]|

   @DF-RHF iter   0:  -187.51910970712927   -1.87519e+02   2.24572e-02 
   @DF-RHF iter   1:  -187.64488074298598   -1.25771e-01   3.41446e-03 
   @DF-RHF iter   2:  -187.64926867755210   -4.38793e-03   1.08166e-03 DIIS
   @DF-RHF iter   3:  -187.64981033397774   -5.41656e-04   3.44381e-04 DIIS
   @DF-RHF iter   4:  -187.64987239358359   -6.20596e-05   5.03107e-05 DIIS
   @DF-RHF iter   5:  -187.64987393967215   -1.54609e-06   1.85813e-05 DIIS
   @DF-RHF iter   6:  -187.64987407316198   -1.33490e-07   7.55089e-06 DIIS
   @DF-RHF iter   7:  -187.64987410285048   -2.96885e-08   1.81178e-06 DIIS
   @DF-RHF iter   8:  -187.64987410536244   -2.51197e-09   3.70384e-07 DIIS
   @DF-RHF iter   9:  -187.64987410546158   -9.91349e-11   7.04121e-08 DIIS
   @DF-RHF iter  10:  -187.64987410546453   -2.95586e-12   1.44606e-08 DIIS
   @DF-RHF iter  11:  -187.64987410546470   -1.70530e-13   1.24126e-09 DIIS

  ==> Post-Iterations <==

    Orbital Energies (a.u.)
    -----------------------

    Doubly Occupied:                                                      

       1B2   -20.648108     1A1   -20.648074     2A1   -11.463489  
       3A1    -1.536285     2B2    -1.480942     4A1    -0.793258  
       3B2    -0.738266     1B1    -0.713272     5A1    -0.713169  
       1A2    -0.536208     4B2    -0.535668  

    Virtual:                                                              

       6A1     0.199845     2B1     0.225645     7A1     0.282596  
       5B2     0.486026     8A1     0.600292     3B1     0.600432  
       9A1     0.786197     6B2     0.992656    10A1     1.050979  
       2A2     1.120957     7B2     1.124074     4B1     1.259323  
      11A1     1.259339    12A1     1.372749     5B1     1.378447  
       8B2     1.436660     3A2     1.595765     9B2     1.658214  
      13A1     1.882739    10B2     2.311670     4A2     2.872261  
      11B2     2.872269    14A1     2.984040     6B1     3.015999  
      15A1     3.031696     7B1     3.145400    16A1     3.303475  
      17A1     3.767634    12B2     3.883303     5A2     3.889931  
      13B2     3.955932  

    Final Occupation by Irrep:
             A1    A2    B1    B2 
    DOCC [     5,    1,    1,    4 ]

  Energy converged.

  @DF-RHF Final Energy:  -187.64987410546470

   => Energetics <=

    Nuclear Repulsion Energy =             58.9829165900011176
    One-Electron Energy =                -373.6521063153119826
    Two-Electron Energy =                 127.0193156198462106
    DFT Exchange-Correlation Energy =       0.0000000000000000
    Empirical Dispersion Energy =           0.0000000000000000
    PCM Polarization Energy =               0.0000000000000000
    EFP Energy =                            0.0000000000000000
    Total Energy =                       -187.6498741054646189


  Saving occupied orbitals to File 180.

*** tstop() called on Takums-iMac.local at Mon Jan 30 18:25:30 2017
Module time:
	user time   =       0.34 seconds =       0.01 minutes
	system time =       0.25 seconds =       0.00 minutes
	total time  =          1 seconds =       0.02 minutes
Total time:
	user time   =       3.81 seconds =       0.06 minutes
	system time =       1.74 seconds =       0.03 minutes
	total time  =          6 seconds =       0.10 minutes


Properties will be evaluated at   0.000000,   0.000000,   0.000000 Bohr

Properties computed using the SCF density matrix

  Nuclear Dipole Moment: (a.u.)
     X:     0.0000      Y:     0.0000      Z:     0.0002

  Electronic Dipole Moment: (a.u.)
     X:     0.0000      Y:     0.0000      Z:    -0.1201

  Dipole Moment: (a.u.)
     X:     0.0000      Y:     0.0000      Z:    -0.1199     Total:     0.1199

  Dipole Moment: (Debye)
     X:     0.0000      Y:     0.0000      Z:    -0.3047     Total:     0.3047


*** tstart() called on Takums-iMac.local
*** at Mon Jan 30 18:25:30 2017


         ------------------------------------------------------------
                                   SCF GRAD                          
                          Rob Parrish, Justin Turney,                
                       Andy Simmonett, and Alex Sokolov              
         ------------------------------------------------------------

  ==> Geometry <==

    Molecular point group: c2v
    Full point group: C2v

    Geometry (in Angstrom), charge = 0, multiplicity = 1:

       Center              X                  Y                   Z               Mass       
    ------------   -----------------  -----------------  -----------------  -----------------
           C          0.000000000000     0.000000000000    -0.060359336388    12.000000000000
           O          0.000000000000    -1.146128330785     0.022641947578    15.994914619560
           O          0.000000000000     1.146128330785     0.022641947578    15.994914619560

  Nuclear repulsion =   58.982916590001118

  ==> Basis Set <==

  Basis Set: CC-PVDZ
    Number of shells: 18
    Number of basis function: 42
    Number of Cartesian functions: 45
    Spherical Harmonics?: true
    Max angular momentum: 2

  ==> DFJKGrad: Density-Fitted SCF Gradients <==

    Gradient:                    1
    J tasked:                  Yes
    K tasked:                  Yes
    wK tasked:                  No
    OpenMP threads:              1
    Integrals threads:           1
    Memory (MB):               178
    Schwarz Cutoff:          0E+00
    Fitting Condition:       1E-12

   => Auxiliary Basis Set <=

  Basis Set: 
    Number of shells: 72
    Number of basis function: 210
    Number of Cartesian functions: 243
    Spherical Harmonics?: true
    Max angular momentum: 3


  -Total Gradient:
     Atom            X                  Y                   Z
    ------   -----------------  -----------------  -----------------
       1        0.000000000000     0.000000000000    -0.031967125212
       2        0.000000000000    -0.019072187656     0.015983562606
       3       -0.000000000000     0.019072187656     0.015983562606


*** tstop() called on Takums-iMac.local at Mon Jan 30 18:25:31 2017
Module time:
	user time   =       0.65 seconds =       0.01 minutes
	system time =       0.05 seconds =       0.00 minutes
	total time  =          1 seconds =       0.02 minutes
Total time:
	user time   =       4.47 seconds =       0.07 minutes
	system time =       1.79 seconds =       0.03 minutes
	total time  =          7 seconds =       0.12 minutes

			-----------------------------------------
			 OPTKING 2.0: for geometry optimizations 
			  - R.A. King,  Bethel University        
			-----------------------------------------

	Previous internal coordinate definitions found.
	---Fragment 1 Geometry and Gradient---
	 C           0.0000000000        0.0000000000       -0.1140626153
	 O           0.0000000000       -2.1658686583        0.0427870800
	 O           0.0000000000        2.1658686583        0.0427870800
	             0.0000000000        0.0000000000       -0.0319671252
	             0.0000000000       -0.0190721877        0.0159835626
	            -0.0000000000        0.0190721877        0.0159835626

	---Fragment 1 Intrafragment Coordinates---
	 - Coordinate -           - BOHR/RAD -       - ANG/DEG -
	 R(1,2)           =         2.171541	       1.149130
	 R(1,3)           =         2.171541	       1.149130
	 R(2,3)           =         4.331737	       2.292257
	 B(1,2,3)         =         0.072293	       4.142063
	 B(1,3,2)         =         0.072293	       4.142063
	 B(2,1,3)         =         2.997007	     171.715874

	Current energy   :      -187.6498741055

	Energy change for the previous step:
		Projected    :        -0.0782666826
		Actual       :        -0.0292211462

	Performing BFGS update.
	Previous computed or guess Hessian on step 1.
	Change in internal coordinate of 7.52e-01 exceeds limit of 5.00e-01.
	 Skipping Hessian update for step 2.
	Change in internal coordinate of 1.08e+00 exceeds limit of 5.00e-01.
	 Skipping Hessian update for step 1.
	Steps to be used in Hessian update: 3
	Taking RFO optimization step.
	Going to follow RFO solution 1.
	Using RFO vector 1.
	Norm of target step-size    0.16219
	Projected energy change by RFO approximation:        -0.0107927581
	Newly linear bends that need to be incoporated into the internal coordinates:
	    2    1    3
	The INTCO_EXCEPTion handler:
	New linear angles
	Dynamic level is 0.
	exc.g_really_quit() is 0.
	Restarting with new internal coordinates at same level.
    Structure for next step:
    Molecular point group: c2v
    Full point group: C2v

    Geometry (in Angstrom), charge = 0, multiplicity = 1:

    C       
    O             1    1.143684
    O             1    1.143684      2           A

    A         =  149.9423103760

gradient() will perform analytic gradient computation.

*** tstart() called on Takums-iMac.local
*** at Mon Jan 30 18:25:31 2017


         ---------------------------------------------------------
                                   SCF
            by Justin Turney, Rob Parrish, and Andy Simmonett
                              RHF Reference
                        1 Threads,    250 MiB Core
         ---------------------------------------------------------

  ==> Geometry <==

    Molecular point group: c2v
    Full point group: C2v

    Geometry (in Angstrom), charge = 0, multiplicity = 1:

       Center              X                  Y                   Z               Mass       
    ------------   -----------------  -----------------  -----------------  -----------------
           C          0.000000000000     0.000000000000    -0.215663632538    12.000000000000
           O          0.000000000000    -1.104564344011     0.080899575022    15.994914619560
           O          0.000000000000     1.104564344011     0.080899575022    15.994914619560

  Running in c2v symmetry.

  Rotational constants: A =     21.96449  B =      0.43192  C =      0.42359 [cm^-1]
  Rotational constants: A = 658478.74918  B =  12948.61250  C =  12698.89589 [MHz]
  Nuclear repulsion =   59.749398037638421

  Charge       = 0
  Multiplicity = 1
  Electrons    = 22
  Nalpha       = 11
  Nbeta        = 11

  ==> Algorithm <==

  SCF Algorithm Type is DF.
  DIIS enabled.
  MOM disabled.
  Fractional occupation disabled.
  Guess Type is READ.
  Energy threshold   = 1.00e-08
  Density threshold  = 1.00e-08
  Integral threshold = 0.00e+00

  ==> Primary Basis <==

  Basis Set: CC-PVDZ
    Number of shells: 18
    Number of basis function: 42
    Number of Cartesian functions: 45
    Spherical Harmonics?: true
    Max angular momentum: 2

  ==> Pre-Iterations <==

   -------------------------------------------------------
    Irrep   Nso     Nmo     Nalpha   Nbeta   Ndocc  Nsocc
   -------------------------------------------------------
     A1        17      17       0       0       0       0
     A2         5       5       0       0       0       0
     B1         7       7       0       0       0       0
     B2        13      13       0       0       0       0
   -------------------------------------------------------
    Total      42      42      11      11      11       0
   -------------------------------------------------------

  ==> Integral Setup <==

  ==> DFJK: Density-Fitted J/K Matrices <==

    J tasked:                  Yes
    K tasked:                  Yes
    wK tasked:                  No
    OpenMP threads:              1
    Integrals threads:           1
    Memory (MB):               178
    Algorithm:                Core
    Integral Cache:           NONE
    Schwarz Cutoff:          1E-12
    Fitting Condition:       1E-12

   => Auxiliary Basis Set <=

  Basis Set: 
    Number of shells: 72
    Number of basis function: 210
    Number of Cartesian functions: 243
    Spherical Harmonics?: true
    Max angular momentum: 3

  Minimum eigenvalue in the overlap matrix is 1.6456893350E-02.
  Using Symmetric Orthogonalization.
  SCF Guess: Reading in previously saved MOs, projecting if necessary.

  Using orbitals from previous SCF, no projection.
  Recomputing DOCC and SOCC from number of alpha and beta electrons from previous calculation.
             A1    A2    B1    B2 
    DOCC [     5,    1,    1,    4 ]

  ==> Iterations <==

                           Total Energy        Delta E     RMS |[F,P]|

   @DF-RHF iter   0:  -187.51712452666914   -1.87517e+02   2.33248e-02 
   @DF-RHF iter   1:  -187.61521103154189   -9.80865e-02   3.75008e-03 
   @DF-RHF iter   2:  -187.61992288005510   -4.71185e-03   1.35770e-03 DIIS
   @DF-RHF iter   3:  -187.62050887822622   -5.85998e-04   5.52357e-04 DIIS
   @DF-RHF iter   4:  -187.62063754564539   -1.28667e-04   2.12418e-04 DIIS
   @DF-RHF iter   5:  -187.62065101278560   -1.34671e-05   4.52873e-05 DIIS
   @DF-RHF iter   6:  -187.62065286768083   -1.85490e-06   1.02247e-05 DIIS
   @DF-RHF iter   7:  -187.62065295605257   -8.83717e-08   2.10015e-06 DIIS
   @DF-RHF iter   8:  -187.62065295911475   -3.06218e-09   4.93960e-07 DIIS
   @DF-RHF iter   9:  -187.62065295924927   -1.34520e-10   9.13184e-08 DIIS
   @DF-RHF iter  10:  -187.62065295925370   -4.43379e-12   1.38359e-08 DIIS
   @DF-RHF iter  11:  -187.62065295925396   -2.55795e-13   2.29981e-09 DIIS

  ==> Post-Iterations <==

    Orbital Energies (a.u.)
    -----------------------

    Doubly Occupied:                                                      

       1B2   -20.641960     1A1   -20.641911     2A1   -11.458819  
       3A1    -1.544306     2B2    -1.469698     4A1    -0.791826  
       3B2    -0.733089     1B1    -0.714357     5A1    -0.712779  
       1A2    -0.530264     4B2    -0.522853  

    Virtual:                                                              

       6A1     0.112916     2B1     0.224057     7A1     0.378480  
       5B2     0.466611     3B1     0.599529     8A1     0.599860  
       9A1     0.835598     6B2     0.986656    10A1     1.055720  
       2A2     1.135454     7B2     1.155026     8B2     1.275485  
      11A1     1.284487     4B1     1.285121    12A1     1.316481  
       5B1     1.365332     3A2     1.581566     9B2     1.919296  
      13A1     1.984432    10B2     2.247231    14A1     2.599276  
       4A2     2.875050    11B2     2.877363     6B1     2.984688  
      15A1     3.037670     7B1     3.240456    16A1     3.670044  
      12B2     3.701628     5A2     3.791105    17A1     3.813148  
      13B2     3.926628  

    Final Occupation by Irrep:
             A1    A2    B1    B2 
    DOCC [     5,    1,    1,    4 ]

  Energy converged.

  @DF-RHF Final Energy:  -187.62065295925396

   => Energetics <=

    Nuclear Repulsion Energy =             59.7493980376384215
    One-Electron Energy =                -375.2163784250714116
    Two-Electron Energy =                 127.8463274281790234
    DFT Exchange-Correlation Energy =       0.0000000000000000
    Empirical Dispersion Energy =           0.0000000000000000
    PCM Polarization Energy =               0.0000000000000000
    EFP Energy =                            0.0000000000000000
    Total Energy =                       -187.6206529592539880


  Saving occupied orbitals to File 180.

*** tstop() called on Takums-iMac.local at Mon Jan 30 18:25:32 2017
Module time:
	user time   =       0.34 seconds =       0.01 minutes
	system time =       0.24 seconds =       0.00 minutes
	total time  =          1 seconds =       0.02 minutes
Total time:
	user time   =       4.90 seconds =       0.08 minutes
	system time =       2.07 seconds =       0.03 minutes
	total time  =          8 seconds =       0.13 minutes


Properties will be evaluated at   0.000000,   0.000000,   0.000000 Bohr

Properties computed using the SCF density matrix

  Nuclear Dipole Moment: (a.u.)
     X:     0.0000      Y:     0.0000      Z:     0.0008

  Electronic Dipole Moment: (a.u.)
     X:     0.0000      Y:     0.0000      Z:    -0.4202

  Dipole Moment: (a.u.)
     X:     0.0000      Y:     0.0000      Z:    -0.4195     Total:     0.4195

  Dipole Moment: (Debye)
     X:     0.0000      Y:     0.0000      Z:    -1.0662     Total:     1.0662


*** tstart() called on Takums-iMac.local
*** at Mon Jan 30 18:25:32 2017


         ------------------------------------------------------------
                                   SCF GRAD                          
                          Rob Parrish, Justin Turney,                
                       Andy Simmonett, and Alex Sokolov              
         ------------------------------------------------------------

  ==> Geometry <==

    Molecular point group: c2v
    Full point group: C2v

    Geometry (in Angstrom), charge = 0, multiplicity = 1:

       Center              X                  Y                   Z               Mass       
    ------------   -----------------  -----------------  -----------------  -----------------
           C          0.000000000000     0.000000000000    -0.215663632538    12.000000000000
           O          0.000000000000    -1.104564344011     0.080899575022    15.994914619560
           O          0.000000000000     1.104564344011     0.080899575022    15.994914619560

  Nuclear repulsion =   59.749398037638421

  ==> Basis Set <==

  Basis Set: CC-PVDZ
    Number of shells: 18
    Number of basis function: 42
    Number of Cartesian functions: 45
    Spherical Harmonics?: true
    Max angular momentum: 2

  ==> DFJKGrad: Density-Fitted SCF Gradients <==

    Gradient:                    1
    J tasked:                  Yes
    K tasked:                  Yes
    wK tasked:                  No
    OpenMP threads:              1
    Integrals threads:           1
    Memory (MB):               178
    Schwarz Cutoff:          0E+00
    Fitting Condition:       1E-12

   => Auxiliary Basis Set <=

  Basis Set: 
    Number of shells: 72
    Number of basis function: 210
    Number of Cartesian functions: 243
    Spherical Harmonics?: true
    Max angular momentum: 3


  -Total Gradient:
     Atom            X                  Y                   Z
    ------   -----------------  -----------------  -----------------
       1        0.000000000000     0.000000000000    -0.105824932716
       2       -0.000000000000     0.029603993572     0.052912466358
       3        0.000000000000    -0.029603993572     0.052912466358


*** tstop() called on Takums-iMac.local at Mon Jan 30 18:25:32 2017
Module time:
	user time   =       0.66 seconds =       0.01 minutes
	system time =       0.05 seconds =       0.00 minutes
	total time  =          0 seconds =       0.00 minutes
Total time:
	user time   =       5.57 seconds =       0.09 minutes
	system time =       2.12 seconds =       0.04 minutes
	total time  =          8 seconds =       0.13 minutes

			-----------------------------------------
			 OPTKING 2.0: for geometry optimizations 
			  - R.A. King,  Bethel University        
			-----------------------------------------

	Internal coordinates to be generated automatically.
	Detected frag 1 with atoms:  1 2 3
	---Fragment 1 Bond Connectivity---
	 1 : 2 3
	 2 : 1
	 3 : 1

	Exception forcing addition of linear bend (2,1,3)
	Exception forcing addition of linear bend complement (2,1,3)
	---Fragment 1 Geometry and Gradient---
	 C           0.0000000000        0.0000000000       -0.4075452023
	 O           0.0000000000       -2.0873241063        0.1528780411
	 O           0.0000000000        2.0873241063        0.1528780411
	             0.0000000000        0.0000000000       -0.1058249327
	            -0.0000000000        0.0296039936        0.0529124664
	             0.0000000000       -0.0296039936        0.0529124664

	Previous optimization step data not found.  Starting new optimization.

	---Fragment 1 Intrafragment Coordinates---
	 - Coordinate -           - BOHR/RAD -       - ANG/DEG -
	 R(1,2)           =         2.161249	       1.143684
	 R(1,3)           =         2.161249	       1.143684
	 L(2,1,3)         =         2.616987	     149.942310
	 l(2,1,3)         =         3.141593	     180.000000

	Current energy   :      -187.6206529593

	Generating empirical Hessian (Schlegel '84) for each fragment.
	Taking RFO optimization step.
	Going to follow RFO solution 1.
	Using RFO vector 1.
	Norm of target step-size    0.41885
	Projected energy change by RFO approximation:        -0.0431029787

	Back-transformation to cartesian coordinates...
	Successfully converged to displaced geometry.

	--- Internal Coordinate Step in ANG or DEG, aJ/ANG or AJ/DEG ---
	 ---------------------------------------------------------------------------
	   Coordinate                Previous        Force       Change         New 
	   ----------                --------       ------       ------       ------
	    1 R(1,2)          =      1.143684     0.122517     0.005448     1.149132
	    2 R(1,3)          =      1.143684     0.122517     0.005448     1.149132
	    3 L(2,1,3)        =    149.942310     0.009666    23.983694   173.926004
	    4 l(2,1,3)        =    180.000000     0.000000     0.000000   180.000000
	 ---------------------------------------------------------------------------

  ==> Convergence Check <==

  Measures of convergence in internal coordinates in au.
  Criteria marked as inactive (o), active & met (*), and active & unmet ( ).
  --------------------------------------------------------------------------------------------- ~
   Step     Total Energy     Delta E     MAX Force     RMS Force      MAX Disp      RMS Disp    ~
  --------------------------------------------------------------------------------------------- ~
    Convergence Criteria    1.00e-06 *    3.00e-04 *             o    1.20e-03 *             o  ~
  --------------------------------------------------------------------------------------------- ~
      1    -187.62065296   -1.88e+02      1.27e-01      6.44e-02 o    4.19e-01      2.09e-01 o  ~
  ---------------------------------------------------------------------------------------------

	Writing optimization data to binary file.
	Structure for next step:
	Cartesian Geometry (in Angstrom)
	    C     0.0000000000   0.0000000000  -0.0585427672
	    O     0.0000000000  -1.1475177192   0.0023391424
	    O     0.0000000000   1.1475177192   0.0023391424
			--------------------------
			 OPTKING Finished Execution 
			--------------------------

    Structure for next step:
    Molecular point group: c2v
    Full point group: C2v

    Geometry (in Angstrom), charge = 0, multiplicity = 1:

    C       
    O             1    1.149132
    O             1    1.149132      2           A

    A         =  173.9260040769

gradient() will perform analytic gradient computation.

*** tstart() called on Takums-iMac.local
*** at Mon Jan 30 18:25:32 2017


         ---------------------------------------------------------
                                   SCF
            by Justin Turney, Rob Parrish, and Andy Simmonett
                              RHF Reference
                        1 Threads,    250 MiB Core
         ---------------------------------------------------------

  ==> Geometry <==

    Molecular point group: c2v
    Full point group: C2v

    Geometry (in Angstrom), charge = 0, multiplicity = 1:

       Center              X                  Y                   Z               Mass       
    ------------   -----------------  -----------------  -----------------  -----------------
           C          0.000000000000     0.000000000000    -0.044273913422    12.000000000000
           O          0.000000000000    -1.147517719176     0.016607996157    15.994914619560
           O          0.000000000000     1.147517719176     0.016607996157    15.994914619560

  Running in c2v symmetry.

  Rotational constants: A =    521.16959  B =      0.40019  C =      0.39988 [cm^-1]
  Rotational constants: A = 15624271.34792  B =  11997.38162  C =  11988.17628 [MHz]
  Nuclear repulsion =   58.964958134459479

  Charge       = 0
  Multiplicity = 1
  Electrons    = 22
  Nalpha       = 11
  Nbeta        = 11

  ==> Algorithm <==

  SCF Algorithm Type is DF.
  DIIS enabled.
  MOM disabled.
  Fractional occupation disabled.
  Guess Type is READ.
  Energy threshold   = 1.00e-08
  Density threshold  = 1.00e-08
  Integral threshold = 0.00e+00

  ==> Primary Basis <==

  Basis Set: CC-PVDZ
    Number of shells: 18
    Number of basis function: 42
    Number of Cartesian functions: 45
    Spherical Harmonics?: true
    Max angular momentum: 2

  ==> Pre-Iterations <==

   -------------------------------------------------------
    Irrep   Nso     Nmo     Nalpha   Nbeta   Ndocc  Nsocc
   -------------------------------------------------------
     A1        17      17       0       0       0       0
     A2         5       5       0       0       0       0
     B1         7       7       0       0       0       0
     B2        13      13       0       0       0       0
   -------------------------------------------------------
    Total      42      42      11      11      11       0
   -------------------------------------------------------

  ==> Integral Setup <==

  ==> DFJK: Density-Fitted J/K Matrices <==

    J tasked:                  Yes
    K tasked:                  Yes
    wK tasked:                  No
    OpenMP threads:              1
    Integrals threads:           1
    Memory (MB):               178
    Algorithm:                Core
    Integral Cache:           NONE
    Schwarz Cutoff:          1E-12
    Fitting Condition:       1E-12

   => Auxiliary Basis Set <=

  Basis Set: 
    Number of shells: 72
    Number of basis function: 210
    Number of Cartesian functions: 243
    Spherical Harmonics?: true
    Max angular momentum: 3

  Minimum eigenvalue in the overlap matrix is 1.7715061394E-02.
  Using Symmetric Orthogonalization.
  SCF Guess: Reading in previously saved MOs, projecting if necessary.

  Using orbitals from previous SCF, no projection.
  Recomputing DOCC and SOCC from number of alpha and beta electrons from previous calculation.
             A1    A2    B1    B2 
    DOCC [     5,    1,    1,    4 ]

  ==> Iterations <==

                           Total Energy        Delta E     RMS |[F,P]|

   @DF-RHF iter   0:  -187.49417650003682   -1.87494e+02   2.46489e-02 
   @DF-RHF iter   1:  -187.64473343610854   -1.50557e-01   3.86647e-03 
   @DF-RHF iter   2:  -187.65019623748606   -5.46280e-03   1.21020e-03 DIIS
   @DF-RHF iter   3:  -187.65084593526245   -6.49698e-04   3.97338e-04 DIIS
   @DF-RHF iter   4:  -187.65092764677945   -8.17115e-05   4.91971e-05 DIIS
   @DF-RHF iter   5:  -187.65092926050306   -1.61372e-06   1.90027e-05 DIIS
   @DF-RHF iter   6:  -187.65092938649246   -1.25989e-07   6.92950e-06 DIIS
   @DF-RHF iter   7:  -187.65092941327282   -2.67804e-08   1.95546e-06 DIIS
   @DF-RHF iter   8:  -187.65092941627296   -3.00014e-09   4.06056e-07 DIIS
   @DF-RHF iter   9:  -187.65092941639125   -1.18291e-10   7.33287e-08 DIIS
   @DF-RHF iter  10:  -187.65092941639449   -3.24007e-12   1.57687e-08 DIIS
   @DF-RHF iter  11:  -187.65092941639460   -1.13687e-13   1.34192e-09 DIIS

  ==> Post-Iterations <==

    Orbital Energies (a.u.)
    -----------------------

    Doubly Occupied:                                                      

       1B2   -20.648278     1A1   -20.648245     2A1   -11.463575  
       3A1    -1.536117     2B2    -1.481471     4A1    -0.793288  
       3B2    -0.738494     1B1    -0.713330     5A1    -0.713275  
       1A2    -0.536436     4B2    -0.536147  

    Virtual:                                                              

       6A1     0.209040     2B1     0.225868     7A1     0.273000  
       5B2     0.486870     8A1     0.600366     3B1     0.600444  
       9A1     0.784597     6B2     0.992944    10A1     1.050848  
       2A2     1.120324     7B2     1.122022     4B1     1.258296  
      11A1     1.258300    12A1     1.375917     5B1     1.379032  
       8B2     1.456597     3A2     1.596615     9B2     1.634986  
      13A1     1.877647    10B2     2.315920     4A2     2.872164  
      11B2     2.872166    14A1     3.011812     6B1     3.018330  
      15A1     3.045368     7B1     3.141006    16A1     3.263702  
      17A1     3.765689    12B2     3.890969     5A2     3.894525  
      13B2     3.957665  

    Final Occupation by Irrep:
             A1    A2    B1    B2 
    DOCC [     5,    1,    1,    4 ]

  Energy converged.

  @DF-RHF Final Energy:  -187.65092941639460

   => Energetics <=

    Nuclear Repulsion Energy =             58.9649581344594793
    One-Electron Energy =                -373.6144623617633442
    Two-Electron Energy =                 126.9985748109092469
    DFT Exchange-Correlation Energy =       0.0000000000000000
    Empirical Dispersion Energy =           0.0000000000000000
    PCM Polarization Energy =               0.0000000000000000
    EFP Energy =                            0.0000000000000000
    Total Energy =                       -187.6509294163946038


  Saving occupied orbitals to File 180.

*** tstop() called on Takums-iMac.local at Mon Jan 30 18:25:33 2017
Module time:
	user time   =       0.34 seconds =       0.01 minutes
	system time =       0.26 seconds =       0.00 minutes
	total time  =          1 seconds =       0.02 minutes
Total time:
	user time   =       6.00 seconds =       0.10 minutes
	system time =       2.40 seconds =       0.04 minutes
	total time  =          9 seconds =       0.15 minutes


Properties will be evaluated at   0.000000,   0.000000,   0.000000 Bohr

Properties computed using the SCF density matrix

  Nuclear Dipole Moment: (a.u.)
     X:     0.0000      Y:     0.0000      Z:     0.0002

  Electronic Dipole Moment: (a.u.)
     X:     0.0000      Y:     0.0000      Z:    -0.0882

  Dipole Moment: (a.u.)
     X:     0.0000      Y:     0.0000      Z:    -0.0880     Total:     0.0880

  Dipole Moment: (Debye)
     X:     0.0000      Y:     0.0000      Z:    -0.2237     Total:     0.2237


*** tstart() called on Takums-iMac.local
*** at Mon Jan 30 18:25:33 2017


         ------------------------------------------------------------
                                   SCF GRAD                          
                          Rob Parrish, Justin Turney,                
                       Andy Simmonett, and Alex Sokolov              
         ------------------------------------------------------------

  ==> Geometry <==

    Molecular point group: c2v
    Full point group: C2v

    Geometry (in Angstrom), charge = 0, multiplicity = 1:

       Center              X                  Y                   Z               Mass       
    ------------   -----------------  -----------------  -----------------  -----------------
           C          0.000000000000     0.000000000000    -0.044273913422    12.000000000000
           O          0.000000000000    -1.147517719176     0.016607996157    15.994914619560
           O          0.000000000000     1.147517719176     0.016607996157    15.994914619560

  Nuclear repulsion =   58.964958134459479

  ==> Basis Set <==

  Basis Set: CC-PVDZ
    Number of shells: 18
    Number of basis function: 42
    Number of Cartesian functions: 45
    Spherical Harmonics?: true
    Max angular momentum: 2

  ==> DFJKGrad: Density-Fitted SCF Gradients <==

[...]
    ------------   -----------------  -----------------  -----------------  -----------------
           C          0.000000000000     0.000000000000    -0.002443707557    12.000000000000
           O          0.000000000000    -1.139603918653     0.000916681689    15.994914619560
           O          0.000000000000     1.139603918653     0.000916681689    15.994914619560

  Nuclear repulsion =   59.436845323197780

  ==> Basis Set <==

  Basis Set: CC-PVDZ
    Number of shells: 18
    Number of basis function: 42
    Number of Cartesian functions: 45
    Spherical Harmonics?: true
    Max angular momentum: 2

  ==> DFJKGrad: Density-Fitted SCF Gradients <==

    Gradient:                    1
    J tasked:                  Yes
    K tasked:                  Yes
    wK tasked:                  No
    OpenMP threads:              1
    Integrals threads:           1
    Memory (MB):               178
    Schwarz Cutoff:          0E+00
    Fitting Condition:       1E-12

   => Auxiliary Basis Set <=

  Basis Set: 
    Number of shells: 72
    Number of basis function: 210
    Number of Cartesian functions: 243
    Spherical Harmonics?: true
    Max angular momentum: 3


  -Total Gradient:
     Atom            X                  Y                   Z
    ------   -----------------  -----------------  -----------------
       1        0.000000000000     0.000000000000    -0.001205954874
       2       -0.000000000000     0.002480690300     0.000602977437
       3        0.000000000000    -0.002480690300     0.000602977437


*** tstop() called on Takums-iMac.local at Mon Jan 30 18:25:35 2017
Module time:
	user time   =       0.66 seconds =       0.01 minutes
	system time =       0.05 seconds =       0.00 minutes
	total time  =          1 seconds =       0.02 minutes
Total time:
	user time   =       7.77 seconds =       0.13 minutes
	system time =       2.79 seconds =       0.05 minutes
	total time  =         11 seconds =       0.18 minutes

			-----------------------------------------
			 OPTKING 2.0: for geometry optimizations 
			  - R.A. King,  Bethel University        
			-----------------------------------------

	Previous internal coordinate definitions found.
	---Fragment 1 Geometry and Gradient---
	 C           0.0000000000        0.0000000000       -0.0046179380
	 O           0.0000000000       -2.1535393062        0.0017322773
	 O           0.0000000000        2.1535393062        0.0017322773
	             0.0000000000        0.0000000000       -0.0012059549
	            -0.0000000000        0.0024806903        0.0006029774
	             0.0000000000       -0.0024806903        0.0006029774

	---Fragment 1 Intrafragment Coordinates---
	 - Coordinate -           - BOHR/RAD -       - ANG/DEG -
	 R(1,2)           =         2.153549	       1.139609
	 R(1,3)           =         2.153549	       1.139609
	 L(2,1,3)         =         3.135695	     179.662101
	 l(2,1,3)         =         3.141593	     180.000000

	Current energy   :      -187.6525010913

	Energy change for the previous step:
		Projected    :        -0.0039381456
		Actual       :        -0.0015716749

	Performing BFGS update.
	Previous computed or guess Hessian on step 1.
	Change in internal coordinate of 5.19e-01 exceeds limit of 5.00e-01.
	 Skipping Hessian update for step 1.
	Steps to be used in Hessian update: 2
	Taking RFO optimization step.
	Going to follow RFO solution 1.
	Using RFO vector 1.
	Norm of target step-size    0.00560
	Projected energy change by RFO approximation:        -0.0000104422

	Back-transformation to cartesian coordinates...
	Successfully converged to displaced geometry.

	--- Internal Coordinate Step in ANG or DEG, aJ/ANG or AJ/DEG ---
	 ---------------------------------------------------------------------------
	   Coordinate                Previous        Force       Change         New 
	   ----------                --------       ------       ------       ------
	    1 R(1,2)          =      1.139609     0.020423     0.000797     1.140405
	    2 R(1,3)          =      1.139609     0.020423     0.000797     1.140405
	    3 L(2,1,3)        =    179.662101     0.000100     0.296693   179.958794
	    4 l(2,1,3)        =    180.000000     0.000000     0.000000   180.000000
	 ---------------------------------------------------------------------------

  ==> Convergence Check <==

  Measures of convergence in internal coordinates in au.
  Criteria marked as inactive (o), active & met (*), and active & unmet ( ).
  ---------------------------------------------------------------------------------------------
   Step     Total Energy     Delta E     MAX Force     RMS Force      MAX Disp      RMS Disp   
  ---------------------------------------------------------------------------------------------
    Convergence Criteria    1.00e-06 *    3.00e-04 *             o    1.20e-03 *             o
  ---------------------------------------------------------------------------------------------
      3    -187.65250109   -1.57e-03      2.48e-03      1.87e-03 o    5.18e-03      2.80e-03 o  ~
  ---------------------------------------------------------------------------------------------

	Writing optimization data to binary file.
	Structure for next step:
	Cartesian Geometry (in Angstrom)
	    C     0.0000000000   0.0000000000  -0.0004768369
	    O     0.0000000000  -1.1404054195  -0.0000667536
	    O     0.0000000000   1.1404054195  -0.0000667536
			--------------------------
			 OPTKING Finished Execution 
			--------------------------

    Structure for next step:
    Molecular point group: c2v
    Full point group: C2v

    Geometry (in Angstrom), charge = 0, multiplicity = 1:

    C       
    O             1    1.140405
    O             1    1.140405      2           A

    A         =  179.9587935341

gradient() will perform analytic gradient computation.

*** tstart() called on Takums-iMac.local
*** at Mon Jan 30 18:25:36 2017


         ---------------------------------------------------------
                                   SCF
            by Justin Turney, Rob Parrish, and Andy Simmonett
                              RHF Reference
                        1 Threads,    250 MiB Core
         ---------------------------------------------------------

  ==> Geometry <==

    Molecular point group: c2v
    Full point group: C2v

    Geometry (in Angstrom), charge = 0, multiplicity = 1:

       Center              X                  Y                   Z               Mass       
    ------------   -----------------  -----------------  -----------------  -----------------
           C          0.000000000000     0.000000000000    -0.000298216506    12.000000000000
           O          0.000000000000    -1.140405419460     0.000111866745    15.994914619560
           O          0.000000000000     1.140405419460     0.000111866745    15.994914619560

  Running in c2v symmetry.

  Rotational constants: A = 11487130.07295  B =      0.40520  C =      0.40520 [cm^-1]
  Rotational constants: A = 344375495993.40607  B =  12147.49501  C =  12147.49458 [MHz]
  Nuclear repulsion =   59.395262648879701

  Charge       = 0
  Multiplicity = 1
  Electrons    = 22
  Nalpha       = 11
  Nbeta        = 11

  ==> Algorithm <==

  SCF Algorithm Type is DF.
  DIIS enabled.
  MOM disabled.
  Fractional occupation disabled.
  Guess Type is READ.
  Energy threshold   = 1.00e-08
  Density threshold  = 1.00e-08
  Integral threshold = 0.00e+00

  ==> Primary Basis <==

  Basis Set: CC-PVDZ
    Number of shells: 18
    Number of basis function: 42
    Number of Cartesian functions: 45
    Spherical Harmonics?: true
    Max angular momentum: 2

  ==> Pre-Iterations <==

   -------------------------------------------------------
    Irrep   Nso     Nmo     Nalpha   Nbeta   Ndocc  Nsocc
   -------------------------------------------------------
     A1        17      17       0       0       0       0
     A2         5       5       0       0       0       0
     B1         7       7       0       0       0       0
     B2        13      13       0       0       0       0
   -------------------------------------------------------
    Total      42      42      11      11      11       0
   -------------------------------------------------------

  ==> Integral Setup <==

  ==> DFJK: Density-Fitted J/K Matrices <==

    J tasked:                  Yes
    K tasked:                  Yes
    wK tasked:                  No
    OpenMP threads:              1
    Integrals threads:           1
    Memory (MB):               178
    Algorithm:                Core
    Integral Cache:           NONE
    Schwarz Cutoff:          1E-12
    Fitting Condition:       1E-12

   => Auxiliary Basis Set <=

  Basis Set: 
    Number of shells: 72
    Number of basis function: 210
    Number of Cartesian functions: 243
    Spherical Harmonics?: true
    Max angular momentum: 3

  Minimum eigenvalue in the overlap matrix is 1.7521532199E-02.
  Using Symmetric Orthogonalization.
  SCF Guess: Reading in previously saved MOs, projecting if necessary.

  Using orbitals from previous SCF, no projection.
  Recomputing DOCC and SOCC from number of alpha and beta electrons from previous calculation.
             A1    A2    B1    B2 
    DOCC [     5,    1,    1,    4 ]

  ==> Iterations <==

                           Total Energy        Delta E     RMS |[F,P]|

   @DF-RHF iter   0:  -187.64981217734541   -1.87650e+02   3.84989e-04 
   @DF-RHF iter   1:  -187.65250814806691   -2.69597e-03   5.23556e-05 
   @DF-RHF iter   2:  -187.65250909051647   -9.42450e-07   1.61923e-05 DIIS
   @DF-RHF iter   3:  -187.65250919298174   -1.02465e-07   5.53084e-06 DIIS
   @DF-RHF iter   4:  -187.65250920748096   -1.44992e-08   1.69590e-06 DIIS
   @DF-RHF iter   5:  -187.65250920807316   -5.92195e-10   2.94447e-07 DIIS
   @DF-RHF iter   6:  -187.65250920811786   -4.47073e-11   5.40438e-08 DIIS
   @DF-RHF iter   7:  -187.65250920811891   -1.05160e-12   1.06277e-08 DIIS
   @DF-RHF iter   8:  -187.65250920811903   -1.13687e-13   2.15056e-09 DIIS

  ==> Post-Iterations <==

    Orbital Energies (a.u.)
    -----------------------

    Doubly Occupied:                                                      

       1B2   -20.646142     1A1   -20.646108     2A1   -11.459365  
       3A1    -1.540734     2B2    -1.486855     4A1    -0.792240  
       3B2    -0.740181     1B1    -0.717222     5A1    -0.717222  
       1A2    -0.537065     4B2    -0.537065  

    Virtual:                                                              

       6A1     0.233297     2B1     0.233299     7A1     0.258156  
       5B2     0.488119     8A1     0.599619     3B1     0.599619  
       9A1     0.792228     6B2     0.997040    10A1     1.051827  
       2A2     1.116323     7B2     1.116323    11A1     1.256976  
       4B1     1.256976    12A1     1.382262     5B1     1.382262  
       8B2     1.514887     3A2     1.611053     9B2     1.611056  
      13A1     1.876919    10B2     2.319332     4A2     2.871330  
      11B2     2.871330    14A1     3.026783     6B1     3.026783  
      15A1     3.147516     7B1     3.147527    16A1     3.202620  
      17A1     3.767271    12B2     3.917316     5A2     3.917317  
      13B2     3.979659  

    Final Occupation by Irrep:
             A1    A2    B1    B2 
    DOCC [     5,    1,    1,    4 ]

  Energy converged.

  @DF-RHF Final Energy:  -187.65250920811903

   => Energetics <=

    Nuclear Repulsion Energy =             59.3952626488797009
    One-Electron Energy =                -374.4551464605494857
    Two-Electron Energy =                 127.4073746035507497
    DFT Exchange-Correlation Energy =       0.0000000000000000
    Empirical Dispersion Energy =           0.0000000000000000
    PCM Polarization Energy =               0.0000000000000000
    EFP Energy =                            0.0000000000000000
    Total Energy =                       -187.6525092081190564


  Saving occupied orbitals to File 180.

*** tstop() called on Takums-iMac.local at Mon Jan 30 18:25:37 2017
Module time:
	user time   =       0.32 seconds =       0.01 minutes
	system time =       0.04 seconds =       0.00 minutes
	total time  =          1 seconds =       0.02 minutes
Total time:
	user time   =       8.18 seconds =       0.14 minutes
	system time =       2.87 seconds =       0.05 minutes
	total time  =         13 seconds =       0.22 minutes


Properties will be evaluated at   0.000000,   0.000000,   0.000000 Bohr

Properties computed using the SCF density matrix

  Nuclear Dipole Moment: (a.u.)
     X:     0.0000      Y:     0.0000      Z:     0.0000

  Electronic Dipole Moment: (a.u.)
     X:     0.0000      Y:     0.0000      Z:    -0.0006

  Dipole Moment: (a.u.)
     X:     0.0000      Y:     0.0000      Z:    -0.0006     Total:     0.0006

  Dipole Moment: (Debye)
     X:     0.0000      Y:     0.0000      Z:    -0.0015     Total:     0.0015


*** tstart() called on Takums-iMac.local
*** at Mon Jan 30 18:25:37 2017


         ------------------------------------------------------------
                                   SCF GRAD                          
                          Rob Parrish, Justin Turney,                
                       Andy Simmonett, and Alex Sokolov              
         ------------------------------------------------------------

  ==> Geometry <==

    Molecular point group: c2v
    Full point group: C2v

    Geometry (in Angstrom), charge = 0, multiplicity = 1:

       Center              X                  Y                   Z               Mass       
    ------------   -----------------  -----------------  -----------------  -----------------
           C          0.000000000000     0.000000000000    -0.000298216506    12.000000000000
           O          0.000000000000    -1.140405419460     0.000111866745    15.994914619560
           O          0.000000000000     1.140405419460     0.000111866745    15.994914619560

  Nuclear repulsion =   59.395262648879701

  ==> Basis Set <==

  Basis Set: CC-PVDZ
    Number of shells: 18
    Number of basis function: 42
    Number of Cartesian functions: 45
    Spherical Harmonics?: true
    Max angular momentum: 2

  ==> DFJKGrad: Density-Fitted SCF Gradients <==

    Gradient:                    1
    J tasked:                  Yes
    K tasked:                  Yes
    wK tasked:                  No
    OpenMP threads:              1
    Integrals threads:           1
    Memory (MB):               178
    Schwarz Cutoff:          0E+00
    Fitting Condition:       1E-12

   => Auxiliary Basis Set <=

  Basis Set: 
    Number of shells: 72
    Number of basis function: 210
    Number of Cartesian functions: 243
    Spherical Harmonics?: true
    Max angular momentum: 3


  -Total Gradient:
     Atom            X                  Y                   Z
    ------   -----------------  -----------------  -----------------
       1       -0.000000000000     0.000000000000    -0.000148146026
       2       -0.000000000000     0.000381524274     0.000074073013
       3        0.000000000000    -0.000381524274     0.000074073013


*** tstop() called on Takums-iMac.local at Mon Jan 30 18:25:37 2017
Module time:
	user time   =       0.67 seconds =       0.01 minutes
	system time =       0.01 seconds =       0.00 minutes
	total time  =          0 seconds =       0.00 minutes
Total time:
	user time   =       8.86 seconds =       0.15 minutes
	system time =       2.89 seconds =       0.05 minutes
	total time  =         13 seconds =       0.22 minutes

			-----------------------------------------
			 OPTKING 2.0: for geometry optimizations 
			  - R.A. King,  Bethel University        
			-----------------------------------------

	Previous internal coordinate definitions found.
	---Fragment 1 Geometry and Gradient---
	 C           0.0000000000        0.0000000000       -0.0005635475
	 O           0.0000000000       -2.1550539232        0.0002113975
	 O           0.0000000000        2.1550539232        0.0002113975
	            -0.0000000000        0.0000000000       -0.0001481460
	            -0.0000000000        0.0003815243        0.0000740730
	             0.0000000000       -0.0003815243        0.0000740730

	---Fragment 1 Intrafragment Coordinates---
	 - Coordinate -           - BOHR/RAD -       - ANG/DEG -
	 R(1,2)           =         2.155054	       1.140405
	 R(1,3)           =         2.155054	       1.140405
	 L(2,1,3)         =         3.140873	     179.958794
	 l(2,1,3)         =         3.141593	     180.000000

	Current energy   :      -187.6525092081

	Energy change for the previous step:
		Projected    :        -0.0000104422
		Actual       :        -0.0000081168
	Energy ratio indicates good step: Trust radius increased to 1.000e+00.


	Performing BFGS update.
	Previous computed or guess Hessian on step 1.
	Steps to be used in Hessian update: 3 2
	Taking RFO optimization step.
	Going to follow RFO solution 1.
	Using RFO vector 1.
	Norm of target step-size    0.00080
	Projected energy change by RFO approximation:        -0.0000005585

	Back-transformation to cartesian coordinates...
	Successfully converged to displaced geometry.

	--- Internal Coordinate Step in ANG or DEG, aJ/ANG or AJ/DEG ---
	 ---------------------------------------------------------------------------
	   Coordinate                Previous        Force       Change         New 
	   ----------                --------       ------       ------       ------
	    1 R(1,2)          =      1.140405     0.003143     0.000146     1.140552
	    2 R(1,3)          =      1.140405     0.003143     0.000146     1.140552
	    3 L(2,1,3)        =    179.958794     0.000012     0.040067   179.998860
	    4 l(2,1,3)        =    180.000000    -0.000000     0.000000   180.000000
	 ---------------------------------------------------------------------------

  ==> Convergence Check <==

  Measures of convergence in internal coordinates in au.
  Criteria marked as inactive (o), active & met (*), and active & unmet ( ).
  ---------------------------------------------------------------------------------------------
   Step     Total Energy     Delta E     MAX Force     RMS Force      MAX Disp      RMS Disp   
  ---------------------------------------------------------------------------------------------
    Convergence Criteria    1.00e-06 *    3.00e-04 *             o    1.20e-03 *             o
  ---------------------------------------------------------------------------------------------
      4    -187.65250921   -8.12e-06      3.81e-04      2.81e-04 o    6.99e-04 *    4.01e-04 o  ~
  ---------------------------------------------------------------------------------------------

	Writing optimization data to binary file.
	Structure for next step:
	Cartesian Geometry (in Angstrom)
	    C     0.0000000000   0.0000000000  -0.0000323907
	    O     0.0000000000  -1.1405518178  -0.0000210461
	    O     0.0000000000   1.1405518178  -0.0000210461
			--------------------------
			 OPTKING Finished Execution 
			--------------------------

    Structure for next step:
    Molecular point group: cs
    Full point group: C_inf_v

    Geometry (in Angstrom), charge = 0, multiplicity = 1:

    C       
    O             1    1.140552
    O             1    1.140552      2           A

    A         =  179.9988602055


PsiException: Point group changed! (cs <-- c2v) You should restart using the last geometry in the output, after carefully making sure all symmetry-dependent input, such as DOCC, is correct.

An error has occurred python-side. Traceback (most recent call last):

  File "<string>", line 40, in <module>

  File "/Users/equipo/miniconda/share/psi4/python/driver.py", line 1010, in optimize
    (current_sym, initial_sym))

ValidationError: Point group changed! (cs <-- c2v) You should restart using the last geometry in the output, after carefully making sure all symmetry-dependent input, such as DOCC, is correct.


