[Molden Format]
[Atoms] (AU)
H    1    1         0.000000000000       0.000000000000      -0.707081631418
H    2    1         0.000000000000       0.000000000000       0.707081631418
[GTO]
  1 0
 s    3  1.00
       13.0100000000         0.0196850000
        1.9620000000         0.1379770000
        0.4446000000         0.4781480000
 s    1  1.00
        0.1220000000         1.0000000000
 p    1  1.00
        0.7270000000         1.0000000000

  2 0
 s    3  1.00
       13.0100000000         0.0196850000
        1.9620000000         0.1379770000
        0.4446000000         0.4781480000
 s    1  1.00
        0.1220000000         1.0000000000
 p    1  1.00
        0.7270000000         1.0000000000

[5D]
[9G]

[MO]
 Sym= Ag
 Ene=        -0.0000000000
 Spin= Alpha
 Occup= -0.0000
  1       0.575672955974
  2      -1.010368714526
  3       0.000000000000
  4       0.000000000000
  5      -0.256548201391
  6       0.575672955974
  7      -1.010368714526
  8       0.000000000000
  9       0.000000000000
 10       0.256548201391
 Sym= B2g
 Ene=         0.0000000000
 Spin= Alpha
 Occup=  0.0000
  1       0.000000000000
  2       0.000000000000
  3       1.368722389263
  4       0.000000000000
  5       0.000000000000
  6       0.000000000000
  7       0.000000000000
  8      -1.368722389263
  9       0.000000000000
 10       0.000000000000
 Sym= B3g
 Ene=         0.0000000000
 Spin= Alpha
 Occup=  0.0000
  1       0.000000000000
  2       0.000000000000
  3       0.000000000000
  4       1.368722389263
  5       0.000000000000
  6       0.000000000000
  7       0.000000000000
  8       0.000000000000
  9      -1.368722389263
 10       0.000000000000
 Sym= B1u
 Ene=         0.0000000000
 Spin= Alpha
 Occup=  0.0000
  1       8.004357366271
  2       7.153763621616
  3       0.000000000000
  4       0.000000000000
  5       5.691507158635
  6      -8.004357366271
  7      -7.153763621616
  8       0.000000000000
  9       0.000000000000
 10       5.691507158635
 Sym= B1u
 Ene=         0.0000000000
 Spin= Alpha
 Occup=  0.0000
  1      -3.075965188157
  2       5.746083066654
  3       0.000000000000
  4       0.000000000000
  5      -0.208120485014
  6       3.075965188157
  7      -5.746083066654
  8       0.000000000000
  9       0.000000000000
 10      -0.208120485014
 Sym= B1u
 Ene=         0.0000000000
 Spin= Alpha
 Occup=  0.0000
  1       2.193084556822
  2      -3.992166986975
  3       0.000000000000
  4       0.000000000000
  5      -1.059905285796
  6      -2.193084556822
  7       3.992166986975
  8       0.000000000000
  9       0.000000000000
 10      -1.059905285796
 Sym= B2u
 Ene=         0.0000000000
 Spin= Alpha
 Occup=  0.0000
  1       0.000000000000
  2       0.000000000000
  3       0.000000000000
  4       0.476685598298
  5       0.000000000000
  6       0.000000000000
  7       0.000000000000
  8       0.000000000000
  9       0.476685598298
 10       0.000000000000
 Sym= B3u
 Ene=         0.0000000000
 Spin= Alpha
 Occup=  0.0000
  1       0.000000000000
  2       0.000000000000
  3       0.476685598298
  4       0.000000000000
  5       0.000000000000
  6       0.000000000000
  7       0.000000000000
  8       0.476685598298
  9       0.000000000000
 10       0.000000000000
 Sym= Ag
 Ene=         0.0000000000
 Spin= Alpha
 Occup=  0.0000
  1      -0.247707359371
  2       0.210351654940
  3       0.000000000000
  4       0.000000000000
  5       0.700531066931
  6      -0.247707359371
  7       0.210351654940
  8       0.000000000000
  9       0.000000000000
 10      -0.700531066931
 Sym= Ag
 Ene=         0.3870815680
 Spin= Alpha
 Occup=  0.7742
  1       0.235891804031
  2       0.314891516195
  3       0.000000000000
  4       0.000000000000
  5       0.030078259643
  6       0.235891804031
  7       0.314891516195
  8       0.000000000000
  9       0.000000000000
 10      -0.030078259643
[Molden Format]
[Atoms] (AU)
H    1    1         0.000000000000       0.000000000000      -0.707081631418
H    2    1         0.000000000000       0.000000000000       0.707081631418
[GTO]
  1 0
 s    3  1.00
       13.0100000000         0.0196850000
        1.9620000000         0.1379770000
        0.4446000000         0.4781480000
 s    1  1.00
        0.1220000000         1.0000000000
 p    1  1.00
        0.7270000000         1.0000000000

  2 0
 s    3  1.00
       13.0100000000         0.0196850000
        1.9620000000         0.1379770000
        0.4446000000         0.4781480000
 s    1  1.00
        0.1220000000         1.0000000000
 p    1  1.00
        0.7270000000         1.0000000000

[5D]
[9G]

[MO]
 Sym= Ag
 Ene=        -0.0000000000
 Spin= Alpha
 Occup= -0.0000
  1       0.575672955974
  2      -1.010368714526
  3       0.000000000000
  4       0.000000000000
  5      -0.256548201391
  6       0.575672955974
  7      -1.010368714526
  8       0.000000000000
  9       0.000000000000
 10       0.256548201391
 Sym= B2g
 Ene=         0.0000000000
 Spin= Alpha
 Occup=  0.0000
  1       0.000000000000
  2       0.000000000000
  3       1.368722389263
  4       0.000000000000
  5       0.000000000000
  6       0.000000000000
  7       0.000000000000
  8      -1.368722389263
  9       0.000000000000
 10       0.000000000000
 Sym= B3g
 Ene=         0.0000000000
 Spin= Alpha
 Occup=  0.0000
  1       0.000000000000
  2       0.000000000000
  3       0.000000000000
  4       1.368722389263
  5       0.000000000000
  6       0.000000000000
  7       0.000000000000
  8       0.000000000000
  9      -1.368722389263
 10       0.000000000000
 Sym= B1u
 Ene=         0.0000000000
 Spin= Alpha
 Occup=  0.0000
  1       8.004357366271
  2       7.153763621616
  3       0.000000000000
  4       0.000000000000
  5       5.691507158635
  6      -8.004357366271
  7      -7.153763621616
  8       0.000000000000
  9       0.000000000000
 10       5.691507158635
 Sym= B1u
 Ene=         0.0000000000
 Spin= Alpha
 Occup=  0.0000
  1      -3.075965188157
  2       5.746083066654
  3       0.000000000000
  4       0.000000000000
  5      -0.208120485014
  6       3.075965188157
  7      -5.746083066654
  8       0.000000000000
  9       0.000000000000
 10      -0.208120485014
 Sym= B1u
 Ene=         0.0000000000
 Spin= Alpha
 Occup=  0.0000
  1       2.193084556822
  2      -3.992166986975
  3       0.000000000000
  4       0.000000000000
  5      -1.059905285796
  6      -2.193084556822
  7       3.992166986975
  8       0.000000000000
  9       0.000000000000
 10      -1.059905285796
 Sym= B2u
 Ene=         0.0000000000
 Spin= Alpha
 Occup=  0.0000
  1       0.000000000000
  2       0.000000000000
  3       0.000000000000
  4       0.476685598298
  5       0.000000000000
  6       0.000000000000
  7       0.000000000000
  8       0.000000000000
  9       0.476685598298
 10       0.000000000000
 Sym= B3u
 Ene=         0.0000000000
 Spin= Alpha
 Occup=  0.0000
  1       0.000000000000
  2       0.000000000000
  3       0.476685598298
  4       0.000000000000
  5       0.000000000000
  6       0.000000000000
  7       0.000000000000
  8       0.476685598298
  9       0.000000000000
 10       0.000000000000
 Sym= Ag
 Ene=         0.0000000000
 Spin= Alpha
 Occup=  0.0000
  1      -0.247707359371
  2       0.210351654940
  3       0.000000000000
  4       0.000000000000
  5       0.700531066931
  6      -0.247707359371
  7       0.210351654940
  8       0.000000000000
  9       0.000000000000
 10      -0.700531066931
 Sym= Ag
 Ene=         0.3870815680
 Spin= Alpha
 Occup=  0.7742
  1       0.235891804031
  2       0.314891516195
  3       0.000000000000
  4       0.000000000000
  5       0.030078259643
  6       0.235891804031
  7       0.314891516195
  8       0.000000000000
  9       0.000000000000
 10      -0.030078259643
[Molden Format]
[Atoms] (AU)
H    1    1         0.000000000000       0.000000000000      -0.707081631418
H    2    1         0.000000000000       0.000000000000       0.707081631418
[GTO]
  1 0
 s    3  1.00
       13.0100000000         0.0196850000
        1.9620000000         0.1379770000
        0.4446000000         0.4781480000
 s    1  1.00
        0.1220000000         1.0000000000
 p    1  1.00
        0.7270000000         1.0000000000

  2 0
 s    3  1.00
       13.0100000000         0.0196850000
        1.9620000000         0.1379770000
        0.4446000000         0.4781480000
 s    1  1.00
        0.1220000000         1.0000000000
 p    1  1.00
        0.7270000000         1.0000000000

[5D]
[9G]

[MO]
 Sym= Ag
 Ene=        -0.0000000000
 Spin= Alpha
 Occup= -0.0000
  1       0.575672955974
  2      -1.010368714526
  3       0.000000000000
  4       0.000000000000
  5      -0.256548201391
  6       0.575672955974
  7      -1.010368714526
  8       0.000000000000
  9       0.000000000000
 10       0.256548201391
 Sym= B2g
 Ene=         0.0000000000
 Spin= Alpha
 Occup=  0.0000
  1       0.000000000000
  2       0.000000000000
  3       1.368722389263
  4       0.000000000000
  5       0.000000000000
  6       0.000000000000
  7       0.000000000000
  8      -1.368722389263
  9       0.000000000000
 10       0.000000000000
 Sym= B3g
 Ene=         0.0000000000
 Spin= Alpha
 Occup=  0.0000
  1       0.000000000000
  2       0.000000000000
  3       0.000000000000
  4       1.368722389263
  5       0.000000000000
  6       0.000000000000
  7       0.000000000000
  8       0.000000000000
  9      -1.368722389263
 10       0.000000000000
 Sym= B1u
 Ene=         0.0000000000
 Spin= Alpha
 Occup=  0.0000
  1       8.004357366271
  2       7.153763621616
  3       0.000000000000
  4       0.000000000000
  5       5.691507158635
  6      -8.004357366271
  7      -7.153763621616
  8       0.000000000000
  9       0.000000000000
 10       5.691507158635
 Sym= B1u
 Ene=         0.0000000000
 Spin= Alpha
 Occup=  0.0000
  1      -3.075965188157
  2       5.746083066654
  3       0.000000000000
  4       0.000000000000
  5      -0.208120485014
  6       3.075965188157
  7      -5.746083066654
  8       0.000000000000
  9       0.000000000000
 10      -0.208120485014
 Sym= B1u
 Ene=         0.0000000000
 Spin= Alpha
 Occup=  0.0000
  1       2.193084556822
  2      -3.992166986975
  3       0.000000000000
  4       0.000000000000
  5      -1.059905285796
  6      -2.193084556822
  7       3.992166986975
  8       0.000000000000
  9       0.000000000000
 10      -1.059905285796
 Sym= B2u
 Ene=         0.0000000000
 Spin= Alpha
 Occup=  0.0000
  1       0.000000000000
  2       0.000000000000
  3       0.000000000000
  4       0.476685598298
  5       0.000000000000
  6       0.000000000000
  7       0.000000000000
  8       0.000000000000
  9       0.476685598298
 10       0.000000000000
 Sym= B3u
 Ene=         0.0000000000
 Spin= Alpha
 Occup=  0.0000
  1       0.000000000000
  2       0.000000000000
  3       0.476685598298
  4       0.000000000000
  5       0.000000000000
  6       0.000000000000
  7       0.000000000000
  8       0.476685598298
  9       0.000000000000
 10       0.000000000000
 Sym= Ag
 Ene=         0.0000000000
 Spin= Alpha
 Occup=  0.0000
  1      -0.247707359371
  2       0.210351654940
  3       0.000000000000
  4       0.000000000000
  5       0.700531066931
  6      -0.247707359371
  7       0.210351654940
  8       0.000000000000
  9       0.000000000000
 10      -0.700531066931
 Sym= Ag
 Ene=         0.3870815680
 Spin= Alpha
 Occup=  0.7742
  1       0.235891804031
  2       0.314891516195
  3       0.000000000000
  4       0.000000000000
  5       0.030078259643
  6       0.235891804031
  7       0.314891516195
  8       0.000000000000
  9       0.000000000000
 10      -0.030078259643
[Molden Format]
[Atoms] (AU)
H    1    1         0.000000000000       0.000000000000      -0.692270581689
H    2    1         0.000000000000       0.000000000000       0.692270581689
[GTO]
  1 0
 s    3  1.00
       19.2406000000         0.0328280000
        2.8992000000         0.2312080000
        0.6534000000         0.8172380000
 s    1  1.00
        0.1776000000         1.0000000000
 p    1  1.00
        1.0000000000         1.0000000000

  2 0
 s    3  1.00
       19.2406000000         0.0328280000
        2.8992000000         0.2312080000
        0.6534000000         0.8172380000
 s    1  1.00
        0.1776000000         1.0000000000
 p    1  1.00
        1.0000000000         1.0000000000

[MO]
 Sym= B2g
 Ene=         0.0000000000
 Spin= Alpha
 Occup=  0.0000
  1       0.000000000000
  2       0.000000000000
  3       1.146925790424
  4       0.000000000000
  5       0.000000000000
  6       0.000000000000
  7       0.000000000000
  8      -1.146925790424
  9       0.000000000000
 10       0.000000000000
 Sym= B3g
 Ene=         0.0000000000
 Spin= Alpha
 Occup=  0.0000
  1       0.000000000000
  2       0.000000000000
  3       0.000000000000
  4       1.146925790424
  5       0.000000000000
  6       0.000000000000
  7       0.000000000000
  8       0.000000000000
  9      -1.146925790424
 10       0.000000000000
 Sym= B1u
 Ene=         0.0000000000
 Spin= Alpha
 Occup=  0.0000
  1       4.442314617486
  2       3.919328251909
  3       0.000000000000
  4       0.000000000000
  5       3.852690965513
  6      -4.442314617486
  7      -3.919328251909
  8       0.000000000000
  9       0.000000000000
 10       3.852690965513
 Sym= B1u
 Ene=         0.0000000000
 Spin= Alpha
 Occup=  0.0000
  1      -2.423264812480
  2       4.829658962063
  3       0.000000000000
  4       0.000000000000
  5      -0.091212595666
  6       2.423264812480
  7      -4.829658962063
  8       0.000000000000
  9       0.000000000000
 10      -0.091212595666
 Sym= B1u
 Ene=         0.0000000000
 Spin= Alpha
 Occup=  0.0000
  1       1.983525800187
  2      -3.179284895971
  3       0.000000000000
  4       0.000000000000
  5      -0.856071336449
  6      -1.983525800187
  7       3.179284895971
  8       0.000000000000
  9       0.000000000000
 10      -0.856071336449
 Sym= B2u
 Ene=         0.0000000000
 Spin= Alpha
 Occup=  0.0000
  1       0.000000000000
  2       0.000000000000
  3       0.000000000000
  4       0.511108657233
  5       0.000000000000
  6       0.000000000000
  7       0.000000000000
  8       0.000000000000
  9       0.511108657233
 10       0.000000000000
 Sym= B3u
 Ene=         0.0000000000
 Spin= Alpha
 Occup=  0.0000
  1       0.000000000000
  2       0.000000000000
  3       0.511108657233
  4       0.000000000000
  5       0.000000000000
  6       0.000000000000
  7       0.000000000000
  8       0.511108657233
  9       0.000000000000
 10       0.000000000000
 Sym= Ag
 Ene=         0.0000000000
 Spin= Alpha
 Occup=  0.0000
  1      -0.652600569067
  2       0.896075105490
  3       0.000000000000
  4       0.000000000000
  5       0.013796511398
  6      -0.652600569067
  7       0.896075105490
  8       0.000000000000
  9       0.000000000000
 10      -0.013796511398
 Sym= Ag
 Ene=         0.0000000000
 Spin= Alpha
 Occup=  0.0000
  1      -0.396945760344
  2       0.476412627880
  3       0.000000000000
  4       0.000000000000
  5       0.630385622539
  6      -0.396945760344
  7       0.476412627880
  8       0.000000000000
  9       0.000000000000
 10      -0.630385622539
 Sym= Ag
 Ene=         0.3475330326
 Spin= Alpha
 Occup=  0.6951
  1       0.035916451318
  2       0.580503935224
  3       0.000000000000
  4       0.000000000000
  5      -0.009996361187
  6       0.035916451318
  7       0.580503935224
  8       0.000000000000
  9       0.000000000000
 10       0.009996361187
[Molden Format]
[Atoms] (AU)
H    1    1         0.000000000000       0.000000000000      -0.693871343938
H    2    1         0.000000000000       0.000000000000       0.693871343938
[GTO]
  1 0
 s    3  1.00
       33.8700000000         0.0060680000
        5.0950000000         0.0453080000
        1.1590000000         0.2028220000
 s    1  1.00
        0.3258000000         1.0000000000
 s    1  1.00
        0.1027000000         1.0000000000
 p    1  1.00
        1.4070000000         1.0000000000
 p    1  1.00
        0.3880000000         1.0000000000
 d    1  1.00
        1.0570000000         1.0000000000

  2 0
 s    3  1.00
       33.8700000000         0.0060680000
        5.0950000000         0.0453080000
        1.1590000000         0.2028220000
 s    1  1.00
        0.3258000000         1.0000000000
 s    1  1.00
        0.1027000000         1.0000000000
 p    1  1.00
        1.4070000000         1.0000000000
 p    1  1.00
        0.3880000000         1.0000000000
 d    1  1.00
        1.0570000000         1.0000000000

[5D]
[9G]

[MO]
 Sym= Ag
 Ene=        -0.0000000000
 Spin= Alpha
 Occup= -0.0000
  1       1.087306014530
  2      -1.146321463078
  3       0.322411432934
  4       0.000000000000
  5       0.000000000000
  6      -0.407015496505
  7       0.000000000000
  8       0.000000000000
  9       0.489903575403
 10       0.421059864339
 11       0.000000000000
 12       0.000000000000
 13      -0.757279153712
 14       0.000000000000
 15       1.087306014530
 16      -1.146321463078
 17       0.322411432934
 18       0.000000000000
 19       0.000000000000
 20       0.407015496505
 21       0.000000000000
 22       0.000000000000
 23      -0.489903575403
 24       0.421059864339
 25       0.000000000000
 26       0.000000000000
 27      -0.757279153712
 28       0.000000000000
 Sym= Ag
 Ene=        -0.0000000000
 Spin= Alpha
 Occup= -0.0000
  1       0.888360661568
  2      -0.236485866960
  3       0.343434537855
  4       0.000000000000
  5       0.000000000000
  6       0.087700180449
  7       0.000000000000
  8       0.000000000000
  9      -1.036383314847
 10      -0.681071159261
 11       0.000000000000
 12       0.000000000000
 13      -0.411777489568
 14       0.000000000000
 15       0.888360661568
 16      -0.236485866960
 17       0.343434537855
 18       0.000000000000
 19       0.000000000000
 20      -0.087700180449
 21       0.000000000000
 22       0.000000000000
 23       1.036383314847
 24      -0.681071159261
 25       0.000000000000
 26       0.000000000000
 27      -0.411777489568
 28       0.000000000000
 Sym= Ag
 Ene=         0.0000000000
 Spin= Alpha
 Occup=  0.0000
  1       0.131986747164
  2      -0.448409013012
  3       1.146474061145
  4       0.000000000000
  5       0.000000000000
  6      -1.276956038486
  7       0.000000000000
  8       0.000000000000
  9       1.329131562761
 10       0.708479483709
 11       0.000000000000
 12       0.000000000000
 13      -0.612483291187
 14       0.000000000000
 15       0.131986747164
 16      -0.448409013012
 17       1.146474061145
 18       0.000000000000
 19       0.000000000000
 20       1.276956038486
 21       0.000000000000
 22       0.000000000000
 23      -1.329131562761
 24       0.708479483709
 25       0.000000000000
 26       0.000000000000
 27      -0.612483291187
 28       0.000000000000
 Sym= B1g
 Ene=         0.0000000000
 Spin= Alpha
 Occup=  0.0000
  1       0.000000000000
  2       0.000000000000
  3       0.000000000000
  4       0.000000000000
  5       0.000000000000
  6       0.000000000000
  7       0.000000000000
  8       0.000000000000
  9       0.000000000000
 10       0.000000000000
 11       0.000000000000
 12       0.000000000000
 13       0.000000000000
 14       0.519401075970
 15       0.000000000000
 16       0.000000000000
 17       0.000000000000
 18       0.000000000000
 19       0.000000000000
 20       0.000000000000
 21       0.000000000000
 22       0.000000000000
 23       0.000000000000
 24       0.000000000000
 25       0.000000000000
 26       0.000000000000
 27       0.000000000000
 28       0.519401075970
 Sym= B2g
 Ene=         0.0000000000
 Spin= Alpha
 Occup=  0.0000
  1       0.000000000000
  2       0.000000000000
  3       0.000000000000
  4       2.544782846609
  5       0.000000000000
  6       0.000000000000
  7      -2.072606860048
  8       0.000000000000
  9       0.000000000000
 10       0.000000000000
 11       1.887300032750
 12       0.000000000000
 13       0.000000000000
 14       0.000000000000
 15       0.000000000000
 16       0.000000000000
 17       0.000000000000
 18      -2.544782846609
 19       0.000000000000
 20       0.000000000000
 21       2.072606860048
 22       0.000000000000
 23       0.000000000000
 24       0.000000000000
 25       1.887300032750
 26       0.000000000000
 27       0.000000000000
 28       0.000000000000
 Sym= B2g
 Ene=         0.0000000000
 Spin= Alpha
 Occup=  0.0000
  1       0.000000000000
  2       0.000000000000
  3       0.000000000000
  4      -2.055565495887
  5       0.000000000000
  6       0.000000000000
  7       0.312900235218
  8       0.000000000000
  9       0.000000000000
 10       0.000000000000
 11      -0.335510835008
 12       0.000000000000
 13       0.000000000000
 14       0.000000000000
 15       0.000000000000
 16       0.000000000000
 17       0.000000000000
 18       2.055565495887
 19       0.000000000000
 20       0.000000000000
 21      -0.312900235218
 22       0.000000000000
 23       0.000000000000
 24       0.000000000000
 25      -0.335510835008
 26       0.000000000000
 27       0.000000000000
 28       0.000000000000
 Sym= B2g
 Ene=         0.0000000000
 Spin= Alpha
 Occup=  0.0000
  1       0.000000000000
  2       0.000000000000
  3       0.000000000000
  4      -1.145818747181
  5       0.000000000000
  6       0.000000000000
  7       2.113858924417
  8       0.000000000000
  9       0.000000000000
 10       0.000000000000
 11       1.487079477573
 12       0.000000000000
 13       0.000000000000
 14       0.000000000000
 15       0.000000000000
 16       0.000000000000
 17       0.000000000000
 18       1.145818747181
 19       0.000000000000
 20       0.000000000000
 21      -2.113858924417
 22       0.000000000000
 23       0.000000000000
 24       0.000000000000
 25       1.487079477573
 26       0.000000000000
 27       0.000000000000
 28       0.000000000000
 Sym= B3g
 Ene=         0.0000000000
 Spin= Alpha
 Occup=  0.0000
  1       0.000000000000
  2       0.000000000000
  3       0.000000000000
  4       0.000000000000
  5       2.544782846609
  6       0.000000000000
  7       0.000000000000
  8      -2.072606860048
  9       0.000000000000
 10       0.000000000000
 11       0.000000000000
 12       1.887300032750
 13       0.000000000000
 14       0.000000000000
 15       0.000000000000
 16       0.000000000000
 17       0.000000000000
 18       0.000000000000
 19      -2.544782846609
 20       0.000000000000
 21       0.000000000000
 22       2.072606860048
 23       0.000000000000
 24       0.000000000000
 25       0.000000000000
 26       1.887300032750
 27       0.000000000000
 28       0.000000000000
 Sym= B3g
 Ene=         0.0000000000
 Spin= Alpha
 Occup=  0.0000
  1       0.000000000000
  2       0.000000000000
  3       0.000000000000
  4       0.000000000000
  5      -2.055565495887
  6       0.000000000000
  7       0.000000000000
  8       0.312900235218
  9       0.000000000000
 10       0.000000000000
 11       0.000000000000
 12      -0.335510835008
 13       0.000000000000
 14       0.000000000000
 15       0.000000000000
 16       0.000000000000
 17       0.000000000000
 18       0.000000000000
 19       2.055565495887
 20       0.000000000000
 21       0.000000000000
 22      -0.312900235218
 23       0.000000000000
 24       0.000000000000
 25       0.000000000000
 26      -0.335510835008
 27       0.000000000000
 28       0.000000000000
 Sym= B3g
 Ene=         0.0000000000
 Spin= Alpha
 Occup=  0.0000
  1       0.000000000000
  2       0.000000000000
  3       0.000000000000
  4       0.000000000000
  5      -1.145818747181
  6       0.000000000000
  7       0.000000000000
  8       2.113858924417
  9       0.000000000000
 10       0.000000000000
 11       0.000000000000
 12       1.487079477573
 13       0.000000000000
 14       0.000000000000
 15       0.000000000000
 16       0.000000000000
 17       0.000000000000
 18       0.000000000000
 19       1.145818747181
 20       0.000000000000
 21       0.000000000000
 22      -2.113858924417
 23       0.000000000000
 24       0.000000000000
 25       0.000000000000
 26       1.487079477573
 27       0.000000000000
 28       0.000000000000
 Sym= Au
 Ene=         0.0000000000
 Spin= Alpha
 Occup=  0.0000
  1       0.000000000000
  2       0.000000000000
  3       0.000000000000
  4       0.000000000000
  5       0.000000000000
  6       0.000000000000
  7       0.000000000000
  8       0.000000000000
  9       0.000000000000
 10       0.000000000000
 11       0.000000000000
 12       0.000000000000
 13       0.000000000000
 14       1.107257005547
 15       0.000000000000
 16       0.000000000000
 17       0.000000000000
 18       0.000000000000
 19       0.000000000000
 20       0.000000000000
 21       0.000000000000
 22       0.000000000000
 23       0.000000000000
 24       0.000000000000
 25       0.000000000000
 26       0.000000000000
 27       0.000000000000
 28      -1.107257005547
 Sym= B1u
 Ene=         0.0000000000
 Spin= Alpha
 Occup=  0.0000
  1       3.631967068798
  2       3.406929268833
  3      -4.447229405281
  4       0.000000000000
  5       0.000000000000
  6      -1.538498783861
  7       0.000000000000
  8       0.000000000000
  9      -0.512649946603
 10       0.342893946413
 11       0.000000000000
 12       0.000000000000
 13       2.081198081257
 14       0.000000000000
 15      -3.631967068798
 16      -3.406929268833
 17       4.447229405281
 18       0.000000000000
 19       0.000000000000
 20      -1.538498783861
 21       0.000000000000
 22       0.000000000000
 23      -0.512649946603
 24      -0.342893946413
 25       0.000000000000
 26       0.000000000000
 27      -2.081198081257
 28       0.000000000000
 Sym= B1u
 Ene=         0.0000000000
 Spin= Alpha
 Occup=  0.0000
  1       2.141312218714
  2      36.153119136007
  3     -21.124506976799
  4       0.000000000000
  5       0.000000000000
  6       0.760743599975
  7       0.000000000000
  8       0.000000000000
  9       8.353096824538
 10       2.160477483038
 11       0.000000000000
 12       0.000000000000
 13       4.698907126862
 14       0.000000000000
 15      -2.141312218714
 16     -36.153119136007
 17      21.124506976799
 18       0.000000000000
 19       0.000000000000
 20       0.760743599975
 21       0.000000000000
 22       0.000000000000
 23       8.353096824538
 24      -2.160477483038
 25       0.000000000000
 26       0.000000000000
 27      -4.698907126862
 28       0.000000000000
 Sym= B1u
 Ene=         0.0000000000
 Spin= Alpha
 Occup=  0.0000
  1       2.009218466757
  2       5.440091682011
  3      -0.757362420098
  4       0.000000000000
  5       0.000000000000
  6       2.480505758298
  7       0.000000000000
  8       0.000000000000
  9       2.081198081257
 10       1.267224408497
 11       0.000000000000
 12       0.000000000000
 13      -0.000000000000
 14       0.000000000000
 15      -2.009218466757
 16      -5.440091682011
 17       0.757362420098
 18       0.000000000000
 19       0.000000000000
 20       2.480505758298
 21       0.000000000000
 22       0.000000000000
 23       2.081198081257
 24      -1.267224408497
 25       0.000000000000
 26       0.000000000000
 27       0.000000000000
 28       0.000000000000
 Sym= B1u
 Ene=         0.0000000000
 Spin= Alpha
 Occup=  0.0000
  1      -1.366381739011
  2      12.420049211803
  3      10.616477395676
  4       0.000000000000
  5       0.000000000000
  6       0.387521947240
  7       0.000000000000
  8       0.000000000000
  9       8.879954014517
 10      -0.040475913450
 11       0.000000000000
 12       0.000000000000
 13      -0.737872819361
 14       0.000000000000
 15       1.366381739011
 16     -12.420049211803
 17     -10.616477395676
 18       0.000000000000
 19       0.000000000000
 20       0.387521947240
 21       0.000000000000
 22       0.000000000000
 23       8.879954014517
 24       0.040475913450
 25       0.000000000000
 26       0.000000000000
 27       0.737872819361
 28       0.000000000000
 Sym= B1u
 Ene=         0.0000000000
 Spin= Alpha
 Occup=  0.0000
  1       2.791544921874
  2      39.664743968512
  3     -42.431013771668
  4       0.000000000000
  5       0.000000000000
  6       1.395810906284
  7       0.000000000000
  8       0.000000000000
  9       2.443846211924
 10       1.525928680335
 11       0.000000000000
 12       0.000000000000
 13       7.870434444142
 14       0.000000000000
 15      -2.791544921874
 16     -39.664743968512
 17      42.431013771668
 18       0.000000000000
 19       0.000000000000
 20       1.395810906284
 21       0.000000000000
 22       0.000000000000
 23       2.443846211924
 24      -1.525928680335
 25       0.000000000000
 26       0.000000000000
 27      -7.870434444142
 28       0.000000000000
 Sym= B1u
 Ene=         0.0000000000
 Spin= Alpha
 Occup=  0.0000
  1       0.459910512242
  2     -35.032525913133
  3      -5.724698174336
  4       0.000000000000
  5       0.000000000000
  6      -0.222256449127
  7       0.000000000000
  8       0.000000000000
  9     -19.142024346062
 10      -0.636361061938
 11       0.000000000000
 12       0.000000000000
 13       0.283432906351
 14       0.000000000000
 15      -0.459910512242
 16      35.032525913133
 17       5.724698174336
 18       0.000000000000
 19       0.000000000000
 20      -0.222256449127
 21       0.000000000000
 22       0.000000000000
 23     -19.142024346062
 24       0.636361061938
 25       0.000000000000
 26       0.000000000000
 27      -0.283432906351
 28       0.000000000000
 Sym= B1u
 Ene=         0.0000000000
 Spin= Alpha
 Occup=  0.0000
  1       0.019945391873
  2      43.381162584308
  3      -0.010608109266
  4       0.000000000000
  5       0.000000000000
  6       0.417416735258
  7       0.000000000000
  8       0.000000000000
  9      20.699648143448
 10       0.907856332501
 11       0.000000000000
 12       0.000000000000
 13      -0.135892136570