    -----------------------------------------------------------------------
          Psi4: An Open-Source Ab Initio Electronic Structure Package
                              Psi4 1.0.0 Driver

                          Git: Rev {master} 6a9a71b dirty

    J. M. Turney, A. C. Simmonett, R. M. Parrish, E. G. Hohenstein,
    F. A. Evangelista, J. T. Fermann, B. J. Mintz, L. A. Burns, J. J. Wilke,
    M. L. Abrams, N. J. Russ, M. L. Leininger, C. L. Janssen, E. T. Seidl,
    W. D. Allen, H. F. Schaefer, R. A. King, E. F. Valeev, C. D. Sherrill,
    and T. D. Crawford, WIREs Comput. Mol. Sci. 2, 556-565 (2012)
    (doi: 10.1002/wcms.93)

                         Additional Contributions by
    A. E. DePrince, U. Bozkaya, A. Yu. Sokolov, D. G. A. Smith, R. Di Remigio,
    R. M. Richard, J. F. Gonthier, H. R. McAlexander, M. Saitow, and
    B. P. Pritchard
    -----------------------------------------------------------------------


    Psi4 started on: Fri Dec 16 11:59:04 2016

    Process ID:  17016
    PSI4DATADIR: /home/fito/programs/psi4conda/share/psi4
    Memory level set to 256.000 MB

  ==> Input File <==

--------------------------------------------------------------------------
memory 250 mb

molecule h2o {
  O 
  H 1 0.96
  H 1 0.96 2 180
}

set basis cc-pVDZ

op, wfn = optimize('hf', return_wfn=True, molecule=h2o)
# scf_e, scf_wfn = frequencies('scf', , dertype=1)

molden(wfn, "op.molden", density_a=wfn.Da())--------------------------------------------------------------------------
/home/fito/programs/psi4conda/lib/python2.7/site-packages/v2rdm_casscf/v2rdm_casscf.so loaded.

  Memory set to 250.000 MiB by Python script.
gradient() will perform analytic gradient computation.
    There are an even number of electrons - assuming singlet.
    Specify the multiplicity in the molecule input block.


*** tstart() called on fito-laptop-ubuntu
*** at Fri Dec 16 11:59:04 2016


         ---------------------------------------------------------
                                   SCF
            by Justin Turney, Rob Parrish, and Andy Simmonett
                              RHF Reference
                        1 Threads,    250 MiB Core
         ---------------------------------------------------------

  ==> Geometry <==

    Molecular point group: d2h
    Full point group: D_inf_h

    Geometry (in Angstrom), charge = 0, multiplicity = 1:

       Center              X                  Y                   Z               Mass       
    ------------   -----------------  -----------------  -----------------  -----------------
           O          0.000000000000     0.000000000000     0.000000000000    15.994914619560
           H          0.000000000000     0.000000000000     0.960000000000     1.007825032070
           H          0.000000000000     0.000000000000    -0.960000000000     1.007825032070

  Running in d2h symmetry.

  Rotational constants: A = ************  B =      9.07484  C =      9.07484 [cm^-1]
  Rotational constants: A = ************  B = 272056.80487  C = 272056.80487 [MHz]
  Nuclear repulsion =    9.095233272640638

  Charge       = 0
  Multiplicity = 1
  Electrons    = 10
  Nalpha       = 5
  Nbeta        = 5

  ==> Algorithm <==

  SCF Algorithm Type is DF.
  DIIS enabled.
  MOM disabled.
  Fractional occupation disabled.
  Guess Type is SAD.
  Energy threshold   = 1.00e-08
  Density threshold  = 1.00e-08
  Integral threshold = 0.00e+00

  ==> Primary Basis <==

  Basis Set: CC-PVDZ
    Number of shells: 12
    Number of basis function: 24
    Number of Cartesian functions: 25
    Spherical Harmonics?: true
    Max angular momentum: 2

  ==> Pre-Iterations <==

   -------------------------------------------------------
    Irrep   Nso     Nmo     Nalpha   Nbeta   Ndocc  Nsocc
   -------------------------------------------------------
     Ag         8       8       0       0       0       0
     B1g        1       1       0       0       0       0
     B2g        2       2       0       0       0       0
     B3g        2       2       0       0       0       0
     Au         0       0       0       0       0       0
     B1u        5       5       0       0       0       0
     B2u        3       3       0       0       0       0
     B3u        3       3       0       0       0       0
   -------------------------------------------------------
    Total      24      24       5       5       5       0
   -------------------------------------------------------

  ==> Integral Setup <==

  ==> DFJK: Density-Fitted J/K Matrices <==

    J tasked:                  Yes
    K tasked:                  Yes
    wK tasked:                  No
    OpenMP threads:              1
    Integrals threads:           1
    Memory (MB):               178
    Algorithm:                Core
    Integral Cache:           NONE
    Schwarz Cutoff:          1E-12
    Fitting Condition:       1E-12

   => Auxiliary Basis Set <=

  Basis Set: 
    Number of shells: 42
    Number of basis function: 116
    Number of Cartesian functions: 131
    Spherical Harmonics?: true
    Max angular momentum: 3

  Minimum eigenvalue in the overlap matrix is 4.2899805483E-02.
  Using Symmetric Orthogonalization.
  SCF Guess: Superposition of Atomic Densities via on-the-fly atomic UHF.

  ==> Iterations <==

                           Total Energy        Delta E     RMS |[F,P]|

   @DF-RHF iter   0:   -76.18615081940295   -7.61862e+01   1.50325e-01 
   @DF-RHF iter   1:   -75.92156522399506    2.64586e-01   3.24961e-02 
   @DF-RHF iter   2:   -75.95731104177837   -3.57458e-02   1.61115e-02 DIIS
   @DF-RHF iter   3:   -75.96798116321379   -1.06701e-02   2.37861e-03 DIIS
   @DF-RHF iter   4:   -75.96841161569665   -4.30452e-04   3.95807e-04 DIIS
   @DF-RHF iter   5:   -75.96842947021305   -1.78545e-05   2.39279e-05 DIIS
   @DF-RHF iter   6:   -75.96842953388206   -6.36690e-08   1.77352e-06 DIIS
   @DF-RHF iter   7:   -75.96842953423211   -3.50056e-10   1.06791e-07 DIIS
   @DF-RHF iter   8:   -75.96842953423271   -5.96856e-13   9.46892e-09 DIIS

  ==> Post-Iterations <==

    Orbital Energies (a.u.)
    -----------------------

    Doubly Occupied:                                                      

       1Ag   -20.501915     2Ag    -1.288780     1B1u   -0.756960  
       1B2u   -0.462394     1B3u   -0.462394  

    Virtual:                                                              

       3Ag     0.176855     2B1u    0.251921     4Ag     0.616002  
       3B1u    1.009191     2B3u    1.223724     2B2u    1.223724  
       1B3g    1.384888     1B2g    1.384888     5Ag     1.703117  
       4B1u    1.712378     3B2u    1.863841     3B3u    1.863841  
       6Ag     2.327978     5B1u    2.878316     7Ag     3.000623  
       1B1g    3.000623     2B2g    3.540418     2B3g    3.540418  
       8Ag     4.635449  

    Final Occupation by Irrep:
             Ag   B1g   B2g   B3g    Au   B1u   B2u   B3u 
    DOCC [     2,    0,    0,    0,    0,    1,    1,    1 ]

  Energy converged.

  @DF-RHF Final Energy:   -75.96842953423271

   => Energetics <=

    Nuclear Repulsion Energy =              9.0952332726406375
    One-Electron Energy =                -123.1824377294259705
    Two-Electron Energy =                  38.1187749225526318
    DFT Exchange-Correlation Energy =       0.0000000000000000
    Empirical Dispersion Energy =           0.0000000000000000
    PCM Polarization Energy =               0.0000000000000000
    EFP Energy =                            0.0000000000000000
    Total Energy =                        -75.9684295342326976


  Saving occupied orbitals to File 180.

*** tstop() called on fito-laptop-ubuntu at Fri Dec 16 11:59:05 2016
Module time:
	user time   =       0.22 seconds =       0.00 minutes
	system time =       0.04 seconds =       0.00 minutes
	total time  =          1 seconds =       0.02 minutes
Total time:
	user time   =       0.22 seconds =       0.00 minutes
	system time =       0.04 seconds =       0.00 minutes
	total time  =          1 seconds =       0.02 minutes


Properties will be evaluated at   0.000000,   0.000000,   0.000000 Bohr

Properties computed using the SCF density matrix

  Nuclear Dipole Moment: (a.u.)
     X:     0.0000      Y:     0.0000      Z:     0.0000

  Electronic Dipole Moment: (a.u.)
     X:     0.0000      Y:     0.0000      Z:     0.0000

  Dipole Moment: (a.u.)
     X:     0.0000      Y:     0.0000      Z:     0.0000     Total:     0.0000

  Dipole Moment: (Debye)
     X:     0.0000      Y:     0.0000      Z:     0.0000     Total:     0.0000


*** tstart() called on fito-laptop-ubuntu
*** at Fri Dec 16 11:59:05 2016


         ------------------------------------------------------------
                                   SCF GRAD                          
                          Rob Parrish, Justin Turney,                
                       Andy Simmonett, and Alex Sokolov              
         ------------------------------------------------------------

  ==> Geometry <==

    Molecular point group: d2h
    Full point group: D_inf_h

    Geometry (in Angstrom), charge = 0, multiplicity = 1:

       Center              X                  Y                   Z               Mass       
    ------------   -----------------  -----------------  -----------------  -----------------
           O          0.000000000000     0.000000000000     0.000000000000    15.994914619560
           H          0.000000000000     0.000000000000     0.960000000000     1.007825032070
           H          0.000000000000     0.000000000000    -0.960000000000     1.007825032070

  Nuclear repulsion =    9.095233272640638

  ==> Basis Set <==

  Basis Set: CC-PVDZ
    Number of shells: 12
    Number of basis function: 24
    Number of Cartesian functions: 25
    Spherical Harmonics?: true
    Max angular momentum: 2

  ==> DFJKGrad: Density-Fitted SCF Gradients <==

    Gradient:                    1
    J tasked:                  Yes
    K tasked:                  Yes
    wK tasked:                  No
    OpenMP threads:              1
    Integrals threads:           1
    Memory (MB):               178
    Schwarz Cutoff:          0E+00
    Fitting Condition:       1E-12

   => Auxiliary Basis Set <=

  Basis Set: 
    Number of shells: 42
    Number of basis function: 116
    Number of Cartesian functions: 131
    Spherical Harmonics?: true
    Max angular momentum: 3


  -Total Gradient:
     Atom            X                  Y                   Z
    ------   -----------------  -----------------  -----------------
       1       -0.000000000000     0.000000000000     0.000000000000
       2        0.000000000000     0.000000000000     0.041296750294
       3        0.000000000000     0.000000000000    -0.041296750294


*** tstop() called on fito-laptop-ubuntu at Fri Dec 16 11:59:05 2016
Module time:
	user time   =       0.13 seconds =       0.00 minutes
	system time =       0.01 seconds =       0.00 minutes
	total time  =          0 seconds =       0.00 minutes
Total time:
	user time   =       0.36 seconds =       0.01 minutes
	system time =       0.06 seconds =       0.00 minutes
	total time  =          1 seconds =       0.02 minutes

			-----------------------------------------
			 OPTKING 2.0: for geometry optimizations 
			  - R.A. King,  Bethel University        
			-----------------------------------------

	Internal coordinates to be generated automatically.
	Detected frag 1 with atoms:  1 2 3
	---Fragment 1 Bond Connectivity---
	 1 : 2 3
	 2 : 1
	 3 : 1

	---Fragment 1 Geometry and Gradient---
	 O           0.0000000000        0.0000000000        0.0000000000
	 H           0.0000000000        0.0000000000        1.8141370876
	 H           0.0000000000        0.0000000000       -1.8141370876
	            -0.0000000000        0.0000000000        0.0000000000
	             0.0000000000        0.0000000000        0.0412967503
	             0.0000000000        0.0000000000       -0.0412967503

	Previous optimization step data not found.  Starting new optimization.

	---Fragment 1 Intrafragment Coordinates---
	 - Coordinate -           - BOHR/RAD -       - ANG/DEG -
	 R(1,2)           =         1.814137	       0.960000
	 R(1,3)           =         1.814137	       0.960000
	 L(2,1,3)         =         3.141593	     180.000000
	 l(2,1,3)         =         3.141593	     180.000000

	Current energy   :       -75.9684295342

	Generating empirical Hessian (Schlegel '84) for each fragment.
	Taking RFO optimization step.
	Going to follow RFO solution 1.
	Using RFO vector 1.
	Norm of target step-size    0.10414
	Projected energy change by RFO approximation:        -0.0060166799

	Back-transformation to cartesian coordinates...
	Successfully converged to displaced geometry.
	First geometry is closer to target in internal coordinates, so am using that one.
	First geometry has RMS(Delta(q)) = 1.11e-16

	--- Internal Coordinate Step in ANG or DEG, aJ/ANG or AJ/DEG ---
	 ---------------------------------------------------------------------------
	   Coordinate                Previous        Force       Change         New 
	   ----------                --------       ------       ------       ------
	    1 R(1,2)          =      0.960000    -0.340232    -0.038967     0.921033
	    2 R(1,3)          =      0.960000    -0.340232    -0.038967     0.921033
	    3 L(2,1,3)        =    180.000000     0.000000     0.000000   180.000000
	    4 l(2,1,3)        =    180.000000     0.000000     0.000000   180.000000
	 ---------------------------------------------------------------------------

  ==> Convergence Check <==

  Measures of convergence in internal coordinates in au.
  Criteria marked as inactive (o), active & met (*), and active & unmet ( ).
  --------------------------------------------------------------------------------------------- ~
   Step     Total Energy     Delta E     MAX Force     RMS Force      MAX Disp      RMS Disp    ~
  --------------------------------------------------------------------------------------------- ~
    Convergence Criteria    1.00e-06 *    3.00e-04 *             o    1.20e-03 *             o  ~
  --------------------------------------------------------------------------------------------- ~
      1     -75.96842953   -7.60e+01      4.13e-02      2.92e-02 o    7.36e-02      5.21e-02 o  ~
  ---------------------------------------------------------------------------------------------

	Writing optimization data to binary file.
	Structure for next step:
	Cartesian Geometry (in Angstrom)
	    O     0.0000000000   0.0000000000   0.0000000000
	    H     0.0000000000   0.0000000000   0.9210330298
	    H     0.0000000000   0.0000000000  -0.9210330298
			--------------------------
			 OPTKING Finished Execution 
			--------------------------

    Structure for next step:
    Molecular point group: d2h
    Full point group: D_inf_h

    Geometry (in Angstrom), charge = 0, multiplicity = 1:

    O       
    H             1    0.921033
    H             1    0.921033      2  180.000000

gradient() will perform analytic gradient computation.

*** tstart() called on fito-laptop-ubuntu
*** at Fri Dec 16 11:59:05 2016


         ---------------------------------------------------------
                                   SCF
            by Justin Turney, Rob Parrish, and Andy Simmonett
                              RHF Reference
                        1 Threads,    250 MiB Core
         ---------------------------------------------------------

  ==> Geometry <==

    Molecular point group: d2h
    Full point group: D_inf_h

    Geometry (in Angstrom), charge = 0, multiplicity = 1:

       Center              X                  Y                   Z               Mass       
    ------------   -----------------  -----------------  -----------------  -----------------
           O          0.000000000000     0.000000000000     0.000000000000    15.994914619560
           H          0.000000000000     0.000000000000     0.921033029773     1.007825032070
           H          0.000000000000     0.000000000000    -0.921033029773     1.007825032070

  Running in d2h symmetry.

  Rotational constants: A = ************  B =      9.85896  C =      9.85896 [cm^-1]
  Rotational constants: A = ************  B = 295564.07752  C = 295564.07752 [MHz]
  Nuclear repulsion =    9.480033461868002

  Charge       = 0
  Multiplicity = 1
  Electrons    = 10
  Nalpha       = 5
  Nbeta        = 5

  ==> Algorithm <==

  SCF Algorithm Type is DF.
  DIIS enabled.
  MOM disabled.
  Fractional occupation disabled.
  Guess Type is READ.
  Energy threshold   = 1.00e-08
  Density threshold  = 1.00e-08
  Integral threshold = 0.00e+00

  ==> Primary Basis <==

  Basis Set: CC-PVDZ
    Number of shells: 12
    Number of basis function: 24
    Number of Cartesian functions: 25
    Spherical Harmonics?: true
    Max angular momentum: 2

  ==> Pre-Iterations <==

   -------------------------------------------------------
    Irrep   Nso     Nmo     Nalpha   Nbeta   Ndocc  Nsocc
   -------------------------------------------------------
     Ag         8       8       0       0       0       0
     B1g        1       1       0       0       0       0
     B2g        2       2       0       0       0       0
     B3g        2       2       0       0       0       0
     Au         0       0       0       0       0       0
     B1u        5       5       0       0       0       0
     B2u        3       3       0       0       0       0
     B3u        3       3       0       0       0       0
   -------------------------------------------------------
    Total      24      24       5       5       5       0
   -------------------------------------------------------

  ==> Integral Setup <==

  ==> DFJK: Density-Fitted J/K Matrices <==

    J tasked:                  Yes
    K tasked:                  Yes
    wK tasked:                  No
    OpenMP threads:              1
    Integrals threads:           1
    Memory (MB):               178
    Algorithm:                Core
    Integral Cache:           NONE
    Schwarz Cutoff:          1E-12
    Fitting Condition:       1E-12

   => Auxiliary Basis Set <=

  Basis Set: 
    Number of shells: 42
    Number of basis function: 116
    Number of Cartesian functions: 131
    Spherical Harmonics?: true
    Max angular momentum: 3

  Minimum eigenvalue in the overlap matrix is 3.7878354624E-02.
  Using Symmetric Orthogonalization.
  SCF Guess: Reading in previously saved MOs, projecting if necessary.

  Using orbitals from previous SCF, no projection.
  Recomputing DOCC and SOCC from number of alpha and beta electrons from previous calculation.
             Ag   B1g   B2g   B3g    Au   B1u   B2u   B3u 
    DOCC [     2,    0,    0,    0,    0,    1,    1,    1 ]

  ==> Iterations <==

                           Total Energy        Delta E     RMS |[F,P]|

   @DF-RHF iter   0:   -76.02689290295261   -7.60269e+01   8.97742e-03 
   @DF-RHF iter   1:   -75.97095705839151    5.59358e-02   2.48729e-03 
   @DF-RHF iter   2:   -75.97117718866964   -2.20130e-04   1.39405e-03 DIIS
   @DF-RHF iter   3:   -75.97125162137546   -7.44327e-05   1.02656e-04 DIIS
   @DF-RHF iter   4:   -75.97125270165584   -1.08028e-06   1.61943e-05 DIIS
   @DF-RHF iter   5:   -75.97125273044605   -2.87902e-08   2.14192e-06 DIIS
   @DF-RHF iter   6:   -75.97125273089279   -4.46732e-10   1.81354e-07 DIIS
   @DF-RHF iter   7:   -75.97125273089532   -2.52953e-12   1.48966e-08 DIIS
   @DF-RHF iter   8:   -75.97125273089542   -9.94760e-14   6.15910e-10 DIIS

  ==> Post-Iterations <==

    Orbital Energies (a.u.)
    -----------------------

    Doubly Occupied:                                                      

       1Ag   -20.501086     2Ag    -1.310102     1B1u   -0.786758  
       1B3u   -0.469790     1B2u   -0.469790  

    Virtual:                                                              

       3Ag     0.189817     2B1u    0.254584     4Ag     0.639058  
       3B1u    1.050005     2B3u    1.218780     2B2u    1.218780  
       1B3g    1.386947     1B2g    1.386947     5Ag     1.683780  
       4B1u    1.725258     3B2u    1.900241     3B3u    1.900241  
       6Ag     2.433620     7Ag     2.992950     1B1g    2.992950  
       5B1u    2.996154     2B2g    3.595454     2B3g    3.595454  
       8Ag     4.717444  

    Final Occupation by Irrep:
             Ag   B1g   B2g   B3g    Au   B1u   B2u   B3u 
    DOCC [     2,    0,    0,    0,    0,    1,    1,    1 ]

  Energy converged.

  @DF-RHF Final Energy:   -75.97125273089542

   => Energetics <=

    Nuclear Repulsion Energy =              9.4800334618680022
    One-Electron Energy =                -123.8275194455944188
    Two-Electron Energy =                  38.3762332528310282
    DFT Exchange-Correlation Energy =       0.0000000000000000
    Empirical Dispersion Energy =           0.0000000000000000
    PCM Polarization Energy =               0.0000000000000000
    EFP Energy =                            0.0000000000000000
    Total Energy =                        -75.9712527308953867


  Saving occupied orbitals to File 180.

*** tstop() called on fito-laptop-ubuntu at Fri Dec 16 11:59:05 2016
Module time:
	user time   =       0.13 seconds =       0.00 minutes
	system time =       0.01 seconds =       0.00 minutes
	total time  =          0 seconds =       0.00 minutes
Total time:
	user time   =       0.54 seconds =       0.01 minutes
	system time =       0.07 seconds =       0.00 minutes
	total time  =          1 seconds =       0.02 minutes


Properties will be evaluated at   0.000000,   0.000000,   0.000000 Bohr

Properties computed using the SCF density matrix

  Nuclear Dipole Moment: (a.u.)
     X:     0.0000      Y:     0.0000      Z:     0.0000

  Electronic Dipole Moment: (a.u.)
     X:     0.0000      Y:     0.0000      Z:     0.0000

  Dipole Moment: (a.u.)
     X:     0.0000      Y:     0.0000      Z:     0.0000     Total:     0.0000

  Dipole Moment: (Debye)
     X:     0.0000      Y:     0.0000      Z:     0.0000     Total:     0.0000


*** tstart() called on fito-laptop-ubuntu
*** at Fri Dec 16 11:59:05 2016


         ------------------------------------------------------------
                                   SCF GRAD                          
                          Rob Parrish, Justin Turney,                
                       Andy Simmonett, and Alex Sokolov              
         ------------------------------------------------------------

  ==> Geometry <==

    Molecular point group: d2h
    Full point group: D_inf_h

    Geometry (in Angstrom), charge = 0, multiplicity = 1:

       Center              X                  Y                   Z               Mass       
    ------------   -----------------  -----------------  -----------------  -----------------
           O          0.000000000000     0.000000000000     0.000000000000    15.994914619560
           H          0.000000000000     0.000000000000     0.921033029773     1.007825032070
           H          0.000000000000     0.000000000000    -0.921033029773     1.007825032070

  Nuclear repulsion =    9.480033461868002

  ==> Basis Set <==

  Basis Set: CC-PVDZ
    Number of shells: 12
    Number of basis function: 24
    Number of Cartesian functions: 25
    Spherical Harmonics?: true
    Max angular momentum: 2

  ==> DFJKGrad: Density-Fitted SCF Gradients <==

    Gradient:                    1
    J tasked:                  Yes
    K tasked:                  Yes
    wK tasked:                  No
    OpenMP threads:              1
    Integrals threads:           1
    Memory (MB):               178
    Schwarz Cutoff:          0E+00
    Fitting Condition:       1E-12

   => Auxiliary Basis Set <=

  Basis Set: 
    Number of shells: 42
    Number of basis function: 116
    Number of Cartesian functions: 131
    Spherical Harmonics?: true
    Max angular momentum: 3


  -Total Gradient:
     Atom            X                  Y                   Z
    ------   -----------------  -----------------  -----------------
       1       -0.000000000000     0.000000000000     0.000000000000
       2        0.000000000000     0.000000000000    -0.005065802590
       3        0.000000000000     0.000000000000     0.005065802590


*** tstop() called on fito-laptop-ubuntu at Fri Dec 16 11:59:05 2016
Module time:
	user time   =       0.17 seconds =       0.00 minutes
	system time =       0.00 seconds =       0.00 minutes
	total time  =          0 seconds =       0.00 minutes
Total time:
	user time   =       0.71 seconds =       0.01 minutes
	system time =       0.07 seconds =       0.00 minutes
	total time  =          1 seconds =       0.02 minutes

			-----------------------------------------
			 OPTKING 2.0: for geometry optimizations 
			  - R.A. King,  Bethel University        
			-----------------------------------------

	Previous internal coordinate definitions found.
	---Fragment 1 Geometry and Gradient---
	 O           0.0000000000        0.0000000000        0.0000000000
	 H           0.0000000000        0.0000000000        1.7405001856
	 H           0.0000000000        0.0000000000       -1.7405001856
	            -0.0000000000        0.0000000000        0.0000000000
	             0.0000000000        0.0000000000       -0.0050658026
	             0.0000000000        0.0000000000        0.0050658026

	---Fragment 1 Intrafragment Coordinates---
	 - Coordinate -           - BOHR/RAD -       - ANG/DEG -
	 R(1,2)           =         1.740500	       0.921033
	 R(1,3)           =         1.740500	       0.921033
	 L(2,1,3)         =         3.141593	     180.000000
	 l(2,1,3)         =         3.141593	     180.000000

	Current energy   :       -75.9712527309

	Energy change for the previous step:
		Projected    :        -0.0060166799
		Actual       :        -0.0028231967

	Performing BFGS update.
	Previous computed or guess Hessian on step 1.
	Steps to be used in Hessian update: 1
	Taking RFO optimization step.
	Going to follow RFO solution 1.
	Using RFO vector 1.
	Norm of target step-size    0.01138
	Projected energy change by RFO approximation:        -0.0000814971

	Back-transformation to cartesian coordinates...
	Successfully converged to displaced geometry.

	--- Internal Coordinate Step in ANG or DEG, aJ/ANG or AJ/DEG ---
	 ---------------------------------------------------------------------------
	   Coordinate                Previous        Force       Change         New 
	   ----------                --------       ------       ------       ------
	    1 R(1,2)          =      0.921033     0.041736     0.004257     0.925290
	    2 R(1,3)          =      0.921033     0.041736     0.004257     0.925290
	    3 L(2,1,3)        =    180.000000     0.000000     0.000000   180.000000
	    4 l(2,1,3)        =    180.000000     0.000000     0.000000   180.000000
	 ---------------------------------------------------------------------------

  ==> Convergence Check <==

  Measures of convergence in internal coordinates in au.
  Criteria marked as inactive (o), active & met (*), and active & unmet ( ).
  ---------------------------------------------------------------------------------------------
   Step     Total Energy     Delta E     MAX Force     RMS Force      MAX Disp      RMS Disp   
  ---------------------------------------------------------------------------------------------
    Convergence Criteria    1.00e-06 *    3.00e-04 *             o    1.20e-03 *             o
  ---------------------------------------------------------------------------------------------
      2     -75.97125273   -2.82e-03      5.07e-03      3.58e-03 o    8.04e-03      5.69e-03 o  ~
  ---------------------------------------------------------------------------------------------

	Writing optimization data to binary file.
	Structure for next step:
	Cartesian Geometry (in Angstrom)
	    O     0.0000000000   0.0000000000   0.0000000000
	    H     0.0000000000   0.0000000000   0.9252902032
	    H     0.0000000000   0.0000000000  -0.9252902032
			--------------------------
			 OPTKING Finished Execution 
			--------------------------

    Structure for next step:
    Molecular point group: d2h
    Full point group: D_inf_h

    Geometry (in Angstrom), charge = 0, multiplicity = 1:

    O       
    H             1    0.925290
    H             1    0.925290      2  180.000000

gradient() will perform analytic gradient computation.

*** tstart() called on fito-laptop-ubuntu
*** at Fri Dec 16 11:59:05 2016


         ---------------------------------------------------------
                                   SCF
            by Justin Turney, Rob Parrish, and Andy Simmonett
                              RHF Reference
                        1 Threads,    250 MiB Core
         ---------------------------------------------------------

  ==> Geometry <==

    Molecular point group: d2h
    Full point group: D_inf_h

    Geometry (in Angstrom), charge = 0, multiplicity = 1:

       Center              X                  Y                   Z               Mass       
    ------------   -----------------  -----------------  -----------------  -----------------
           O          0.000000000000     0.000000000000     0.000000000000    15.994914619560
           H          0.000000000000     0.000000000000     0.925290203181     1.007825032070
           H          0.000000000000     0.000000000000    -0.925290203181     1.007825032070

  Running in d2h symmetry.

  Rotational constants: A = ************  B =      9.76844  C =      9.76844 [cm^-1]
  Rotational constants: A = ************  B = 292850.60894  C = 292850.60894 [MHz]
  Nuclear repulsion =    9.436416717385740

  Charge       = 0
  Multiplicity = 1
  Electrons    = 10
  Nalpha       = 5
  Nbeta        = 5

  ==> Algorithm <==

  SCF Algorithm Type is DF.
  DIIS enabled.
  MOM disabled.
  Fractional occupation disabled.
  Guess Type is READ.
  Energy threshold   = 1.00e-08
  Density threshold  = 1.00e-08
  Integral threshold = 0.00e+00

  ==> Primary Basis <==

  Basis Set: CC-PVDZ
    Number of shells: 12
    Number of basis function: 24
    Number of Cartesian functions: 25
    Spherical Harmonics?: true
    Max angular momentum: 2

  ==> Pre-Iterations <==

   -------------------------------------------------------
    Irrep   Nso     Nmo     Nalpha   Nbeta   Ndocc  Nsocc
   -------------------------------------------------------
     Ag         8       8       0       0       0       0
     B1g        1       1       0       0       0       0
     B2g        2       2       0       0       0       0
     B3g        2       2       0       0       0       0
     Au         0       0       0       0       0       0
     B1u        5       5       0       0       0       0
     B2u        3       3       0       0       0       0
     B3u        3       3       0       0       0       0
   -------------------------------------------------------
    Total      24      24       5       5       5       0
   -------------------------------------------------------

  ==> Integral Setup <==

  ==> DFJK: Density-Fitted J/K Matrices <==

    J tasked:                  Yes
    K tasked:                  Yes
    wK tasked:                  No
    OpenMP threads:              1
    Integrals threads:           1
    Memory (MB):               178
    Algorithm:                Core
    Integral Cache:           NONE
    Schwarz Cutoff:          1E-12
    Fitting Condition:       1E-12

   => Auxiliary Basis Set <=

  Basis Set: 
    Number of shells: 42
    Number of basis function: 116
    Number of Cartesian functions: 131
    Spherical Harmonics?: true
    Max angular momentum: 3

  Minimum eigenvalue in the overlap matrix is 3.8426331109E-02.
  Using Symmetric Orthogonalization.
  SCF Guess: Reading in previously saved MOs, projecting if necessary.

  Using orbitals from previous SCF, no projection.
  Recomputing DOCC and SOCC from number of alpha and beta electrons from previous calculation.
             Ag   B1g   B2g   B3g    Au   B1u   B2u   B3u 
    DOCC [     2,    0,    0,    0,    0,    1,    1,    1 ]

  ==> Iterations <==

                           Total Energy        Delta E     RMS |[F,P]|

   @DF-RHF iter   0:   -75.96493265583136   -7.59649e+01   1.05882e-03 
   @DF-RHF iter   1:   -75.97128428356517   -6.35163e-03   2.86509e-04 
   @DF-RHF iter   2:   -75.97128715305186   -2.86949e-06   1.60896e-04 DIIS
   @DF-RHF iter   3:   -75.97128814568912   -9.92637e-07   1.13717e-05 DIIS
   @DF-RHF iter   4:   -75.97128815871130   -1.30222e-08   1.73011e-06 DIIS
   @DF-RHF iter   5:   -75.97128815904009   -3.28782e-10   2.35910e-07 DIIS
   @DF-RHF iter   6:   -75.97128815904557   -5.48539e-12   2.02057e-08 DIIS
   @DF-RHF iter   7:   -75.97128815904560   -2.84217e-14   1.62575e-09 DIIS

  ==> Post-Iterations <==

    Orbital Energies (a.u.)
    -----------------------

    Doubly Occupied:                                                      

       1Ag   -20.501206     2Ag    -1.307706     1B1u   -0.783430  
       1B3u   -0.468971     1B2u   -0.468971  

    Virtual:                                                              

       3Ag     0.188478     2B1u    0.254302     4Ag     0.636303  
       3B1u    1.045516     2B2u    1.219428     2B3u    1.219428  
       1B2g    1.386667     1B3g    1.386667     5Ag     1.685905  
       4B1u    1.723608     3B3u    1.896017     3B2u    1.896017  
       6Ag     2.421572     5B1u    2.982724     7Ag     2.993796  
       1B1g    2.993796     2B3g    3.589336     2B2g    3.589336  
       8Ag     4.708272  

    Final Occupation by Irrep:
             Ag   B1g   B2g   B3g    Au   B1u   B2u   B3u 
    DOCC [     2,    0,    0,    0,    0,    1,    1,    1 ]

  Energy converged.

  @DF-RHF Final Energy:   -75.97128815904560

   => Energetics <=

    Nuclear Repulsion Energy =              9.4364167173857396
    One-Electron Energy =                -123.7548399768286487
    Two-Electron Energy =                  38.3471351003973098
    DFT Exchange-Correlation Energy =       0.0000000000000000
    Empirical Dispersion Energy =           0.0000000000000000
    PCM Polarization Energy =               0.0000000000000000
    EFP Energy =                            0.0000000000000000
    Total Energy =                        -75.9712881590455993


  Saving occupied orbitals to File 180.

*** tstop() called on fito-laptop-ubuntu at Fri Dec 16 11:59:05 2016
Module time:
	user time   =       0.12 seconds =       0.00 minutes
	system time =       0.00 seconds =       0.00 minutes
	total time  =          0 seconds =       0.00 minutes
Total time:
	user time   =       0.92 seconds =       0.02 minutes
	system time =       0.08 seconds =       0.00 minutes
	total time  =          1 seconds =       0.02 minutes


Properties will be evaluated at   0.000000,   0.000000,   0.000000 Bohr

Properties computed using the SCF density matrix

  Nuclear Dipole Moment: (a.u.)
     X:     0.0000      Y:     0.0000      Z:     0.0000

  Electronic Dipole Moment: (a.u.)
     X:     0.0000      Y:     0.0000      Z:     0.0000

  Dipole Moment: (a.u.)
     X:     0.0000      Y:     0.0000      Z:     0.0000     Total:     0.0000

  Dipole Moment: (Debye)
     X:     0.0000      Y:     0.0000      Z:     0.0000     Total:     0.0000


*** tstart() called on fito-laptop-ubuntu
*** at Fri Dec 16 11:59:05 2016


         ------------------------------------------------------------
                                   SCF GRAD                          
                          Rob Parrish, Justin Turney,                
                       Andy Simmonett, and Alex Sokolov              
         ------------------------------------------------------------

  ==> Geometry <==

    Molecular point group: d2h
    Full point group: D_inf_h

    Geometry (in Angstrom), charge = 0, multiplicity = 1:

       Center              X                  Y                   Z               Mass       
    ------------   -----------------  -----------------  -----------------  -----------------
           O          0.000000000000     0.000000000000     0.000000000000    15.994914619560
           H          0.000000000000     0.000000000000     0.925290203181     1.007825032070
           H          0.000000000000     0.000000000000    -0.925290203181     1.007825032070

  Nuclear repulsion =    9.436416717385740

  ==> Basis Set <==

  Basis Set: CC-PVDZ
    Number of shells: 12
    Number of basis function: 24
    Number of Cartesian functions: 25
    Spherical Harmonics?: true
    Max angular momentum: 2

  ==> DFJKGrad: Density-Fitted SCF Gradients <==

    Gradient:                    1
    J tasked:                  Yes
    K tasked:                  Yes
    wK tasked:                  No
    OpenMP threads:              1
    Integrals threads:           1
    Memory (MB):               178
    Schwarz Cutoff:          0E+00
    Fitting Condition:       1E-12

   => Auxiliary Basis Set <=

  Basis Set: 
    Number of shells: 42
    Number of basis function: 116
    Number of Cartesian functions: 131
    Spherical Harmonics?: true
    Max angular momentum: 3


  -Total Gradient:
     Atom            X                  Y                   Z
    ------   -----------------  -----------------  -----------------
       1       -0.000000000000    -0.000000000000     0.000000000000
       2        0.000000000000     0.000000000000     0.000634076557
       3        0.000000000000     0.000000000000    -0.000634076557


*** tstop() called on fito-laptop-ubuntu at Fri Dec 16 11:59:05 2016
Module time:
	user time   =       0.13 seconds =       0.00 minutes
	system time =       0.01 seconds =       0.00 minutes
	total time  =          0 seconds =       0.00 minutes
Total time:
	user time   =       1.06 seconds =       0.02 minutes
	system time =       0.09 seconds =       0.00 minutes
	total time  =          1 seconds =       0.02 minutes

			-----------------------------------------
			 OPTKING 2.0: for geometry optimizations 
			  - R.A. King,  Bethel University        
			-----------------------------------------

	Previous internal coordinate definitions found.
	---Fragment 1 Geometry and Gradient---
	 O           0.0000000000        0.0000000000        0.0000000000
	 H           0.0000000000        0.0000000000        1.7485450775
	 H           0.0000000000        0.0000000000       -1.7485450775
	            -0.0000000000       -0.0000000000        0.0000000000
	             0.0000000000        0.0000000000        0.0006340766
	             0.0000000000        0.0000000000       -0.0006340766

	---Fragment 1 Intrafragment Coordinates---
	 - Coordinate -           - BOHR/RAD -       - ANG/DEG -
	 R(1,2)           =         1.748545	       0.925290
	 R(1,3)           =         1.748545	       0.925290
	 L(2,1,3)         =         3.141593	     180.000000
	 l(2,1,3)         =         3.141593	     180.000000

	Current energy   :       -75.9712881590

	Energy change for the previous step:
		Projected    :        -0.0000814971
		Actual       :        -0.0000354282

	Performing BFGS update.
	Previous computed or guess Hessian on step 1.
	Steps to be used in Hessian update: 2 1
	Taking RFO optimization step.
	Going to follow RFO solution 1.
	Using RFO vector 1.
	Norm of target step-size    0.00145
	Projected energy change by RFO approximation:        -0.0000012971

	Back-transformation to cartesian coordinates...
	Successfully converged to displaced geometry.

	--- Internal Coordinate Step in ANG or DEG, aJ/ANG or AJ/DEG ---
	 ---------------------------------------------------------------------------
	   Coordinate                Previous        Force       Change         New 
	   ----------                --------       ------       ------       ------
	    1 R(1,2)          =      0.925290    -0.005224    -0.000541     0.924749
	    2 R(1,3)          =      0.925290    -0.005224    -0.000541     0.924749
	    3 L(2,1,3)        =    180.000000     0.000000     0.000000   180.000000
	    4 l(2,1,3)        =    180.000000     0.000000     0.000000   180.000000
	 ---------------------------------------------------------------------------

  ==> Convergence Check <==

  Measures of convergence in internal coordinates in au.
  Criteria marked as inactive (o), active & met (*), and active & unmet ( ).
  ---------------------------------------------------------------------------------------------
   Step     Total Energy     Delta E     MAX Force     RMS Force      MAX Disp      RMS Disp   
  ---------------------------------------------------------------------------------------------
    Convergence Criteria    1.00e-06 *    3.00e-04 *             o    1.20e-03 *             o
  ---------------------------------------------------------------------------------------------
      3     -75.97128816   -3.54e-05      6.34e-04      4.48e-04 o    1.02e-03 *    7.23e-04 o  ~
  ---------------------------------------------------------------------------------------------

	Writing optimization data to binary file.
	Structure for next step:
	Cartesian Geometry (in Angstrom)
	    O     0.0000000000   0.0000000000   0.0000000000
	    H     0.0000000000   0.0000000000   0.9247489544
	    H     0.0000000000   0.0000000000  -0.9247489544
			--------------------------
			 OPTKING Finished Execution 
			--------------------------

    Structure for next step:
    Molecular point group: d2h
    Full point group: D_inf_h

    Geometry (in Angstrom), charge = 0, multiplicity = 1:

    O       
    H             1    0.924749
    H             1    0.924749      2  180.000000

gradient() will perform analytic gradient computation.

*** tstart() called on fito-laptop-ubuntu
*** at Fri Dec 16 11:59:06 2016


         ---------------------------------------------------------
                                   SCF
            by Justin Turney, Rob Parrish, and Andy Simmonett
                              RHF Reference
                        1 Threads,    250 MiB Core
         ---------------------------------------------------------

  ==> Geometry <==

    Molecular point group: d2h
    Full point group: D_inf_h

    Geometry (in Angstrom), charge = 0, multiplicity = 1:

       Center              X                  Y                   Z               Mass       
    ------------   -----------------  -----------------  -----------------  -----------------
           O          0.000000000000     0.000000000000     0.000000000000    15.994914619560
           H          0.000000000000     0.000000000000     0.924748954405     1.007825032070
           H          0.000000000000     0.000000000000    -0.924748954405     1.007825032070

  Running in d2h symmetry.

  Rotational constants: A = ************  B =      9.77988  C =      9.77988 [cm^-1]
  Rotational constants: A = ************  B = 293193.51589  C = 293193.51589 [MHz]
  Nuclear repulsion =    9.441939782835494

  Charge       = 0
  Multiplicity = 1
  Electrons    = 10
  Nalpha       = 5
  Nbeta        = 5

  ==> Algorithm <==

  SCF Algorithm Type is DF.
  DIIS enabled.
  MOM disabled.
  Fractional occupation disabled.
  Guess Type is READ.
  Energy threshold   = 1.00e-08
  Density threshold  = 1.00e-08
  Integral threshold = 0.00e+00

  ==> Primary Basis <==

  Basis Set: CC-PVDZ
    Number of shells: 12
    Number of basis function: 24
    Number of Cartesian functions: 25
    Spherical Harmonics?: true
    Max angular momentum: 2

  ==> Pre-Iterations <==

   -------------------------------------------------------
    Irrep   Nso     Nmo     Nalpha   Nbeta   Ndocc  Nsocc
   -------------------------------------------------------
     Ag         8       8       0       0       0       0
     B1g        1       1       0       0       0       0
     B2g        2       2       0       0       0       0
     B3g        2       2       0       0       0       0
     Au         0       0       0       0       0       0
     B1u        5       5       0       0       0       0
     B2u        3       3       0       0       0       0
     B3u        3       3       0       0       0       0
   -------------------------------------------------------
    Total      24      24       5       5       5       0
   -------------------------------------------------------

  ==> Integral Setup <==

  ==> DFJK: Density-Fitted J/K Matrices <==

    J tasked:                  Yes
    K tasked:                  Yes
    wK tasked:                  No
    OpenMP threads:              1
    Integrals threads:           1
    Memory (MB):               178
    Algorithm:                Core
    Integral Cache:           NONE
    Schwarz Cutoff:          1E-12
    Fitting Condition:       1E-12

   => Auxiliary Basis Set <=

  Basis Set: 
    Number of shells: 42
    Number of basis function: 116
    Number of Cartesian functions: 131
    Spherical Harmonics?: true
    Max angular momentum: 3

  Minimum eigenvalue in the overlap matrix is 3.8356639545E-02.
  Using Symmetric Orthogonalization.
  SCF Guess: Reading in previously saved MOs, projecting if necessary.

  Using orbitals from previous SCF, no projection.
  Recomputing DOCC and SOCC from number of alpha and beta electrons from previous calculation.
             Ag   B1g   B2g   B3g    Au   B1u   B2u   B3u 
    DOCC [     2,    0,    0,    0,    0,    1,    1,    1 ]

  ==> Iterations <==

                           Total Energy        Delta E     RMS |[F,P]|

   @DF-RHF iter   0:   -75.97209297090866   -7.59721e+01   1.33509e-04 
   @DF-RHF iter   1:   -75.97128866284470    8.04308e-04   3.62197e-05 
   @DF-RHF iter   2:   -75.97128870878880   -4.59441e-08   2.03348e-05 DIIS
   @DF-RHF iter   3:   -75.97128872464168   -1.58529e-08   1.44320e-06 DIIS
   @DF-RHF iter   4:   -75.97128872485182   -2.10136e-10   2.20452e-07 DIIS
   @DF-RHF iter   5:   -75.97128872485713   -5.31486e-12   2.99667e-08 DIIS
   @DF-RHF iter   6:   -75.97128872485723   -9.94760e-14   2.56247e-09 DIIS

  ==> Post-Iterations <==

    Orbital Energies (a.u.)
    -----------------------

    Doubly Occupied:                                                      

       1Ag   -20.501191     2Ag    -1.308010     1B1u   -0.783852  
       1B2u   -0.469075     1B3u   -0.469075  

    Virtual:                                                              

       3Ag     0.188649     2B1u    0.254338     4Ag     0.636650  
       3B1u    1.046087     2B2u    1.219348     2B3u    1.219348  
       1B2g    1.386702     1B3g    1.386702     5Ag     1.685635  
       4B1u    1.723815     3B2u    1.896551     3B3u    1.896551  
       6Ag     2.423097     5B1u    2.984423     7Ag     2.993688  
       1B1g    2.993688     2B3g    3.590112     2B2g    3.590112  
       8Ag     4.709435  

    Final Occupation by Irrep:
             Ag   B1g   B2g   B3g    Au   B1u   B2u   B3u 
    DOCC [     2,    0,    0,    0,    0,    1,    1,    1 ]

  Energy converged.

  @DF-RHF Final Energy:   -75.97128872485723

   => Energetics <=

    Nuclear Repulsion Energy =              9.4419397828354938
    One-Electron Energy =                -123.7640493506058306
    Two-Electron Energy =                  38.3508208429131017
    DFT Exchange-Correlation Energy =       0.0000000000000000
    Empirical Dispersion Energy =           0.0000000000000000
    PCM Polarization Energy =               0.0000000000000000
    EFP Energy =                            0.0000000000000000
    Total Energy =                        -75.9712887248572315


  Saving occupied orbitals to File 180.

*** tstop() called on fito-laptop-ubuntu at Fri Dec 16 11:59:06 2016
Module time:
	user time   =       0.21 seconds =       0.00 minutes
	system time =       0.01 seconds =       0.00 minutes
	total time  =          0 seconds =       0.00 minutes
Total time:
	user time   =       1.39 seconds =       0.02 minutes
	system time =       0.10 seconds =       0.00 minutes
	total time  =          2 seconds =       0.03 minutes


Properties will be evaluated at   0.000000,   0.000000,   0.000000 Bohr

Properties computed using the SCF density matrix

  Nuclear Dipole Moment: (a.u.)
     X:     0.0000      Y:     0.0000      Z:     0.0000

  Electronic Dipole Moment: (a.u.)
     X:     0.0000      Y:     0.0000      Z:     0.0000

  Dipole Moment: (a.u.)
     X:     0.0000      Y:     0.0000      Z:     0.0000     Total:     0.0000

  Dipole Moment: (Debye)
     X:     0.0000      Y:     0.0000      Z:     0.0000     Total:     0.0000


*** tstart() called on fito-laptop-ubuntu
*** at Fri Dec 16 11:59:06 2016


         ------------------------------------------------------------
                                   SCF GRAD                          
                          Rob Parrish, Justin Turney,                
                       Andy Simmonett, and Alex Sokolov              
         ------------------------------------------------------------

  ==> Geometry <==

    Molecular point group: d2h
    Full point group: D_inf_h

    Geometry (in Angstrom), charge = 0, multiplicity = 1:

       Center              X                  Y                   Z               Mass       
    ------------   -----------------  -----------------  -----------------  -----------------
           O          0.000000000000     0.000000000000     0.000000000000    15.994914619560
           H          0.000000000000     0.000000000000     0.924748954405     1.007825032070
           H          0.000000000000     0.000000000000    -0.924748954405     1.007825032070

  Nuclear repulsion =    9.441939782835494

  ==> Basis Set <==

  Basis Set: CC-PVDZ
    Number of shells: 12
    Number of basis function: 24
    Number of Cartesian functions: 25
    Spherical Harmonics?: true
    Max angular momentum: 2

  ==> DFJKGrad: Density-Fitted SCF Gradients <==

    Gradient:                    1
    J tasked:                  Yes
    K tasked:                  Yes
    wK tasked:                  No
    OpenMP threads:              1
    Integrals threads:           1
    Memory (MB):               178
    Schwarz Cutoff:          0E+00
    Fitting Condition:       1E-12

   => Auxiliary Basis Set <=

  Basis Set: 
    Number of shells: 42
    Number of basis function: 116
    Number of Cartesian functions: 131
    Spherical Harmonics?: true
    Max angular momentum: 3


  -Total Gradient:
     Atom            X                  Y                   Z
    ------   -----------------  -----------------  -----------------
       1       -0.000000000000    -0.000000000000     0.000000000000
       2        0.000000000000     0.000000000000    -0.000081330250
       3        0.000000000000     0.000000000000     0.000081330250


*** tstop() called on fito-laptop-ubuntu at Fri Dec 16 11:59:06 2016
Module time:
	user time   =       0.21 seconds =       0.00 minutes
	system time =       0.01 seconds =       0.00 minutes
	total time  =          0 seconds =       0.00 minutes
Total time:
	user time   =       1.61 seconds =       0.03 minutes
	system time =       0.11 seconds =       0.00 minutes
	total time  =          2 seconds =       0.03 minutes

			-----------------------------------------
			 OPTKING 2.0: for geometry optimizations 
			  - R.A. King,  Bethel University        
			-----------------------------------------

	Previous internal coordinate definitions found.
	---Fragment 1 Geometry and Gradient---
	 O           0.0000000000        0.0000000000        0.0000000000
	 H           0.0000000000        0.0000000000        1.7475222655
	 H           0.0000000000        0.0000000000       -1.7475222655
	            -0.0000000000       -0.0000000000        0.0000000000
	             0.0000000000        0.0000000000       -0.0000813303
	             0.0000000000        0.0000000000        0.0000813303

	---Fragment 1 Intrafragment Coordinates---
	 - Coordinate -           - BOHR/RAD -       - ANG/DEG -
	 R(1,2)           =         1.747522	       0.924749
	 R(1,3)           =         1.747522	       0.924749
	 L(2,1,3)         =         3.141593	     180.000000
	 l(2,1,3)         =         3.141593	     180.000000

	Current energy   :       -75.9712887249

	Energy change for the previous step:
		Projected    :        -0.0000012971
		Actual       :        -0.0000005658

	Performing BFGS update.
	Previous computed or guess Hessian on step 1.
	Steps to be used in Hessian update: 3 2
	Taking RFO optimization step.
	Going to follow RFO solution 1.
	Using RFO vector 1.
	Norm of target step-size    0.00016
	Projected energy change by RFO approximation:        -0.0000000186

	Back-transformation to cartesian coordinates...
	Successfully converged to displaced geometry.

	--- Internal Coordinate Step in ANG or DEG, aJ/ANG or AJ/DEG ---
	 ---------------------------------------------------------------------------
	   Coordinate                Previous        Force       Change         New 
	   ----------                --------       ------       ------       ------
	    1 R(1,2)          =      0.924749     0.000670     0.000061     0.924810
	    2 R(1,3)          =      0.924749     0.000670     0.000061     0.924810
	    3 L(2,1,3)        =    180.000000     0.000000     0.000000   180.000000
	    4 l(2,1,3)        =    180.000000     0.000000     0.000000   180.000000
	 ---------------------------------------------------------------------------

  ==> Convergence Check <==

  Measures of convergence in internal coordinates in au.
  Criteria marked as inactive (o), active & met (*), and active & unmet ( ).
  ---------------------------------------------------------------------------------------------
   Step     Total Energy     Delta E     MAX Force     RMS Force      MAX Disp      RMS Disp   
  ---------------------------------------------------------------------------------------------
    Convergence Criteria    1.00e-06 *    3.00e-04 *             o    1.20e-03 *             o
  ---------------------------------------------------------------------------------------------
      4     -75.97128872   -5.66e-07 *    8.13e-05 *    5.75e-05 o    1.15e-04 *    8.10e-05 o  ~
  ---------------------------------------------------------------------------------------------


  **** Optimization is complete! (in 4 steps) ****

  ==> Optimization Summary <==

  Measures of convergence in internal coordinates in au.
  --------------------------------------------------------------------------------------------------------------- ~
   Step         Total Energy             Delta E       MAX Force       RMS Force        MAX Disp        RMS Disp  ~
  --------------------------------------------------------------------------------------------------------------- ~
      1     -75.968429534233    -75.968429534233      0.04129675      0.02920121      0.07363690      0.05206915  ~
      2     -75.971252730895     -0.002823196663      0.00506580      0.00358206      0.00804489      0.00568860  ~
      3     -75.971288159046     -0.000035428150      0.00063408      0.00044836      0.00102281      0.00072324  ~
      4     -75.971288724857     -0.000000565812      0.00008133      0.00005751      0.00011458      0.00008102  ~
  --------------------------------------------------------------------------------------------------------------- ~

	Writing optimization data to binary file.
	Final energy is    -75.9712887248572
	Final (previous) structure:
	Cartesian Geometry (in Angstrom)
	    O     0.0000000000   0.0000000000   0.0000000000
	    H     0.0000000000   0.0000000000   0.9247489544
	    H     0.0000000000   0.0000000000  -0.9247489544
	Saving final (previous) structure.
			--------------------------
			 OPTKING Finished Execution 
			--------------------------

    Final optimized geometry and variables:
    Molecular point group: d2h
    Full point group: D_inf_h

    Geometry (in Angstrom), charge = 0, multiplicity = 1:

    O       
    H             1    0.924749
    H             1    0.924749      2  180.000000

	Cleaning optimization helper files.

*** Psi4 exiting successfully. Buy a developer a beer!
