[Molden Format]
[Atoms] (AU)
N    1    7         0.000000000000       0.000000000000      -1.017854395323
N    2    7         0.000000000000       0.000000000000       1.017854395323
[GTO]
  1 0
 s    8  1.00
     9046.0000000000         0.0007000000
     1357.0000000000         0.0053890000
      309.3000000000         0.0274060000
       87.7300000000         0.1032070000
       28.5600000000         0.2787230000
       10.2100000000         0.4485400000
        3.8380000000         0.2782380000
        0.7466000000         0.0154400000
 s    8  1.00
     9046.0000000000        -0.0001530000
     1357.0000000000        -0.0012080000
      309.3000000000        -0.0059920000
       87.7300000000        -0.0245440000
       28.5600000000        -0.0674590000
       10.2100000000        -0.1580780000
        3.8380000000        -0.1218310000
        0.7466000000         0.5490030000
 s    1  1.00
        0.2248000000         1.0000000000
 p    3  1.00
       13.5500000000         0.0399190000
        2.9170000000         0.2171690000
        0.7973000000         0.5103190000
 p    1  1.00
        0.2185000000         1.0000000000
 d    1  1.00
        0.8170000000         1.0000000000

  2 0
 s    8  1.00
     9046.0000000000         0.0007000000
     1357.0000000000         0.0053890000
      309.3000000000         0.0274060000
       87.7300000000         0.1032070000
       28.5600000000         0.2787230000
       10.2100000000         0.4485400000
        3.8380000000         0.2782380000
        0.7466000000         0.0154400000
 s    8  1.00
     9046.0000000000        -0.0001530000
     1357.0000000000        -0.0012080000
      309.3000000000        -0.0059920000
       87.7300000000        -0.0245440000
       28.5600000000        -0.0674590000
       10.2100000000        -0.1580780000
        3.8380000000        -0.1218310000
        0.7466000000         0.5490030000
 s    1  1.00
        0.2248000000         1.0000000000
 p    3  1.00
       13.5500000000         0.0399190000
        2.9170000000         0.2171690000
        0.7973000000         0.5103190000
 p    1  1.00
        0.2185000000         1.0000000000
 d    1  1.00
        0.8170000000         1.0000000000

[5D]
[9G]

[MO]
 Sym= B1u
 Ene=        -0.0000000000
 Spin= Alpha
 Occup= -0.0000
  1       2.714740189426
  2       4.518749390021
  3     -73.343045515486
  4       0.000000000000
  5       0.000000000000
  6       0.793009448149
  7       0.000000000000
  8       0.000000000000
  9     -40.759423440576
 10      -1.676917562825
 11       0.000000000000
 12       0.000000000000
 13       0.264185853379
 14       0.000000000000
 15      -2.714740189426
 16      -4.518749390021
 17      73.343045515486
 18       0.000000000000
 19       0.000000000000
 20       0.793009448149
 21       0.000000000000
 22       0.000000000000
 23     -40.759423440576
 24       1.676917562825
 25       0.000000000000
 26       0.000000000000
 27      -0.264185853379
 28       0.000000000000
 Sym= B1u
 Ene=        -0.0000000000
 Spin= Alpha
 Occup= -0.0000
  1       0.599471312830
  2       1.244228521295
  3      -3.366014844922
  4       0.000000000000
  5       0.000000000000
  6       1.225759068855
  7       0.000000000000
  8       0.000000000000
  9      -2.287003323750
 10       0.899586221753
 11       0.000000000000
 12       0.000000000000
 13       0.029788572019
 14       0.000000000000
 15      -0.599471312830
 16      -1.244228521295
 17       3.366014844922
 18       0.000000000000
 19       0.000000000000
 20       1.225759068855
 21       0.000000000000
 22       0.000000000000
 23      -2.287003323750
 24      -0.899586221753
 25       0.000000000000
 26       0.000000000000
 27      -0.029788572019
 28       0.000000000000
 Sym= Ag
 Ene=        -0.0000000000
 Spin= Alpha
 Occup= -0.0000
  1      -0.599804806340
  2      -0.306430868433
  3       0.365320348441
  4       0.000000000000
  5       0.000000000000
  6       1.055866215090
  7       0.000000000000
  8       0.000000000000
  9       0.124253248423
 10       0.092261800156
 11       0.000000000000
 12       0.000000000000
 13      -0.054492821064
 14       0.000000000000
 15      -0.599804806340
 16      -0.306430868433
 17       0.365320348441
 18       0.000000000000
 19       0.000000000000
 20      -1.055866215090
 21       0.000000000000
 22       0.000000000000
 23      -0.124253248423
 24       0.092261800156
 25       0.000000000000
 26       0.000000000000
 27      -0.054492821064
 28       0.000000000000
 Sym= B1u
 Ene=        -0.0000000000
 Spin= Alpha
 Occup= -0.0000
  1       1.165058255093
  2       1.941085225133
  3     -27.185853739987
  4       0.000000000000
  5       0.000000000000
  6      -0.607498654224
  7       0.000000000000
  8       0.000000000000
  9     -15.225445707258
 10      -1.211852089905
 11       0.000000000000
 12       0.000000000000
 13      -0.046015553589
 14       0.000000000000
 15      -1.165058255093
 16      -1.941085225133
 17      27.185853739987
 18       0.000000000000
 19       0.000000000000
 20      -0.607498654224
 21       0.000000000000
 22       0.000000000000
 23     -15.225445707258
 24       1.211852089905
 25       0.000000000000
 26       0.000000000000
 27       0.046015553589
 28       0.000000000000
 Sym= Ag
 Ene=        -0.0000000000
 Spin= Alpha
 Occup= -0.0000
  1       0.157526801800
  2       0.366696219480
  3       0.008129964461
  4       0.000000000000
  5       0.000000000000
  6       0.795406559284
  7       0.000000000000
  8       0.000000000000
  9      -1.014723713903
 10      -0.510084281383
 11       0.000000000000
 12       0.000000000000
 13       0.022165669613
 14       0.000000000000
 15       0.157526801800
 16       0.366696219480
 17       0.008129964461
 18       0.000000000000
 19       0.000000000000
 20      -0.795406559284
 21       0.000000000000
 22       0.000000000000
 23       1.014723713903
 24      -0.510084281383
 25       0.000000000000
 26       0.000000000000
 27       0.022165669613
 28       0.000000000000
 Sym= B2u
 Ene=        -0.0000000000
 Spin= Alpha
 Occup= -0.0000
  1       0.000000000000
  2       0.000000000000
  3       0.000000000000
  4       0.000000000000
  5      -0.339186789321
  6       0.000000000000
  7       0.000000000000
  8       0.533239586106
  9       0.000000000000
 10       0.000000000000
 11       0.000000000000
 12       0.369853170293
 13       0.000000000000
 14       0.000000000000
 15       0.000000000000
 16       0.000000000000
 17       0.000000000000
 18       0.000000000000
 19      -0.339186789321
 20       0.000000000000
 21       0.000000000000
 22       0.533239586106
 23       0.000000000000
 24       0.000000000000
 25       0.000000000000
 26      -0.369853170293
 27       0.000000000000
 28       0.000000000000
 Sym= Ag
 Ene=        -0.0000000000
 Spin= Alpha
 Occup= -0.0000
  1       0.148513571663
  2      -0.987860748075
  3       0.708238090371
  4       0.000000000000
  5       0.000000000000
  6      -0.002072261334
  7       0.000000000000
  8       0.000000000000
  9      -0.770011306463
 10      -0.059099260198
 11       0.000000000000
 12       0.000000000000
 13      -0.785009041676
 14       0.000000000000
 15       0.148513571663
 16      -0.987860748075
 17       0.708238090371
 18       0.000000000000
 19       0.000000000000
 20       0.002072261334
 21       0.000000000000
 22       0.000000000000
 23       0.770011306463
 24      -0.059099260198
 25       0.000000000000
 26       0.000000000000
 27      -0.785009041676
 28       0.000000000000
 Sym= B1u
 Ene=        -0.0000000000
 Spin= Alpha
 Occup= -0.0000
  1       2.104901436807
  2       3.200851446367
  3     -34.921222906327
  4       0.000000000000
  5       0.000000000000
  6      -1.256489966800
  7       0.000000000000
  8       0.000000000000
  9     -18.982195815472
 10      -0.447176136541
 11       0.000000000000
 12       0.000000000000
 13       1.326262306571
 14       0.000000000000
 15      -2.104901436807
 16      -3.200851446367
 17      34.921222906327
 18       0.000000000000
 19       0.000000000000
 20      -1.256489966800
 21       0.000000000000
 22       0.000000000000
 23     -18.982195815472
 24       0.447176136541
 25       0.000000000000
 26       0.000000000000
 27      -1.326262306571
 28       0.000000000000
 Sym= B1g
 Ene=         0.0000000000
 Spin= Alpha
 Occup=  0.0000
  1       0.000000000000
  2       0.000000000000
  3       0.000000000000
  4       0.000000000000
  5       0.000000000000
  6       0.000000000000
  7       0.000000000000
  8       0.000000000000
  9       0.000000000000
 10       0.000000000000
 11       0.000000000000
 12       0.000000000000
 13       0.000000000000
 14       0.597223161868
 15       0.000000000000
 16       0.000000000000
 17       0.000000000000
 18       0.000000000000
 19       0.000000000000
 20       0.000000000000
 21       0.000000000000
 22       0.000000000000
 23       0.000000000000
 24       0.000000000000
 25       0.000000000000
 26       0.000000000000
 27       0.000000000000
 28       0.597223161868
 Sym= B2g
 Ene=         0.0000000000
 Spin= Alpha
 Occup=  0.0000
  1       0.000000000000
  2       0.000000000000
  3       0.000000000000
  4       1.096638193133
  5       0.000000000000
  6       0.000000000000
  7       0.240052418383
  8       0.000000000000
  9       0.000000000000
 10       0.000000000000
 11       1.737223062825
 12       0.000000000000
 13       0.000000000000
 14       0.000000000000
 15       0.000000000000
 16       0.000000000000
 17       0.000000000000
 18      -1.096638193133
 19       0.000000000000
 20       0.000000000000
 21      -0.240052418383
 22       0.000000000000
 23       0.000000000000
 24       0.000000000000
 25       1.737223062825
 26       0.000000000000
 27       0.000000000000
 28       0.000000000000
 Sym= B2g
 Ene=         0.0000000000
 Spin= Alpha
 Occup=  0.0000
  1       0.000000000000
  2       0.000000000000
  3       0.000000000000
  4      -0.803782658212
  5       0.000000000000
  6       0.000000000000
  7       2.608523188641
  8       0.000000000000
  9       0.000000000000
 10       0.000000000000
 11      -0.008520078452
 12       0.000000000000
 13       0.000000000000
 14       0.000000000000
 15       0.000000000000
 16       0.000000000000
 17       0.000000000000
 18       0.803782658212
 19       0.000000000000
 20       0.000000000000
 21      -2.608523188641
 22       0.000000000000
 23       0.000000000000
 24       0.000000000000
 25      -0.008520078452
 26       0.000000000000
 27       0.000000000000
 28       0.000000000000
 Sym= B2g
 Ene=         0.0000000000
 Spin= Alpha
 Occup=  0.0000
  1       0.000000000000
  2       0.000000000000
  3       0.000000000000
  4       0.972961682822
  5       0.000000000000
  6       0.000000000000
  7      -0.742032252365
  8       0.000000000000
  9       0.000000000000
 10       0.000000000000
 11      -0.103721571203
 12       0.000000000000
 13       0.000000000000
 14       0.000000000000
 15       0.000000000000
 16       0.000000000000
 17       0.000000000000
 18      -0.972961682822
 19       0.000000000000
 20       0.000000000000
 21       0.742032252365
 22       0.000000000000
 23       0.000000000000
 24       0.000000000000
 25      -0.103721571203
 26       0.000000000000
 27       0.000000000000
 28       0.000000000000
 Sym= B3g
 Ene=         0.0000000000
 Spin= Alpha
 Occup=  0.0000
  1       0.000000000000
  2       0.000000000000
  3       0.000000000000
  4       0.000000000000
  5       1.096638193133
  6       0.000000000000
  7       0.000000000000
  8       0.240052418383
  9       0.000000000000
 10       0.000000000000
 11       0.000000000000
 12       1.737223062825
 13       0.000000000000
 14       0.000000000000
 15       0.000000000000
 16       0.000000000000
 17       0.000000000000
 18       0.000000000000
 19      -1.096638193133
 20       0.000000000000
 21       0.000000000000
 22      -0.240052418383
 23       0.000000000000
 24       0.000000000000
 25       0.000000000000
 26       1.737223062825
 27       0.000000000000
 28       0.000000000000
 Sym= B3g
 Ene=         0.0000000000
 Spin= Alpha
 Occup=  0.0000
  1       0.000000000000
  2       0.000000000000
  3       0.000000000000
  4       0.000000000000
  5      -0.803782658212
  6       0.000000000000
  7       0.000000000000
  8       2.608523188641
  9       0.000000000000
 10       0.000000000000
 11       0.000000000000
 12      -0.008520078452
 13       0.000000000000
 14       0.000000000000
 15       0.000000000000
 16       0.000000000000
 17       0.000000000000
 18       0.000000000000
 19       0.803782658212
 20       0.000000000000
 21       0.000000000000
 22      -2.608523188641
 23       0.000000000000
 24       0.000000000000
 25       0.000000000000
 26      -0.008520078452
 27       0.000000000000
 28       0.000000000000
 Sym= B3g
 Ene=         0.0000000000
 Spin= Alpha
 Occup=  0.0000
  1       0.000000000000
  2       0.000000000000
  3       0.000000000000
  4       0.000000000000
  5       0.972961682822
  6       0.000000000000
  7       0.000000000000
  8      -0.742032252365
  9       0.000000000000
 10       0.000000000000
 11       0.000000000000
 12      -0.103721571203
 13       0.000000000000
 14       0.000000000000
 15       0.000000000000
 16       0.000000000000
 17       0.000000000000
 18       0.000000000000
 19      -0.972961682822
 20       0.000000000000
 21       0.000000000000
 22       0.742032252365
 23       0.000000000000
 24       0.000000000000
 25       0.000000000000
 26      -0.103721571203
 27       0.000000000000
 28       0.000000000000
 Sym= Au
 Ene=         0.0000000000
 Spin= Alpha
 Occup=  0.0000
  1       0.000000000000
  2       0.000000000000
  3       0.000000000000
  4       0.000000000000
  5       0.000000000000
  6       0.000000000000
  7       0.000000000000
  8       0.000000000000
  9       0.000000000000
 10       0.000000000000
 11       0.000000000000
 12       0.000000000000
 13       0.000000000000
 14       0.866542750521
 15       0.000000000000
 16       0.000000000000
 17       0.000000000000
 18       0.000000000000
 19       0.000000000000
 20       0.000000000000
 21       0.000000000000
 22       0.000000000000
 23       0.000000000000
 24       0.000000000000
 25       0.000000000000
 26       0.000000000000
 27       0.000000000000
 28      -0.866542750521
 Sym= B2u
 Ene=         0.0000000000
 Spin= Alpha
 Occup=  0.0000
  1       0.000000000000
  2       0.000000000000
  3       0.000000000000
  4       0.000000000000
  5       0.222942701489
  6       0.000000000000
  7       0.000000000000
  8      -0.482895677428
  9       0.000000000000
 10       0.000000000000
 11       0.000000000000
 12       0.378569927588
 13       0.000000000000
 14       0.000000000000
 15       0.000000000000
 16       0.000000000000
 17       0.000000000000
 18       0.000000000000
 19       0.222942701489
 20       0.000000000000
 21       0.000000000000
 22      -0.482895677428
 23       0.000000000000
 24       0.000000000000
 25       0.000000000000
 26      -0.378569927588
 27       0.000000000000
 28       0.000000000000
 Sym= Ag
 Ene=         0.0000000000
 Spin= Alpha
 Occup=  0.0000
  1      -0.327299485394
  2      -0.687131585564
  3       0.518710975480
  4       0.000000000000
  5       0.000000000000
  6       0.232110318687
  7       0.000000000000
  8       0.000000000000
  9      -0.333444590394
 10       0.582700555058
 11       0.000000000000
 12       0.000000000000
 13       0.031773340665
 14       0.000000000000
 15      -0.327299485394
 16      -0.687131585564
 17       0.518710975480
 18       0.000000000000
 19       0.000000000000
 20      -0.232110318687
 21       0.000000000000
 22       0.000000000000
 23       0.333444590394
 24       0.582700555058
 25       0.000000000000
 26       0.000000000000
 27       0.031773340665
 28       0.000000000000
 Sym= B3u
 Ene=         0.0000000000
 Spin= Alpha
 Occup=  0.0000
  1       0.000000000000
  2       0.000000000000
  3       0.000000000000
  4       0.247224142924
  5       0.000000000000
  6       0.000000000000
  7      -0.345206931205
  8       0.000000000000
  9       0.000000000000
 10       0.000000000000
 11      -0.473616460889
 12       0.000000000000
 13       0.000000000000
 14       0.000000000000
 15       0.000000000000
 16       0.000000000000
 17       0.000000000000
 18       0.247224142924
 19       0.000000000000
 20       0.000000000000
 21      -0.345206931205
 22       0.000000000000
 23       0.000000000000
 24       0.000000000000
 25       0.473616460889
 26       0.000000000000
 27       0.000000000000
 28       0.000000000000
 Sym= B1u
 Ene=         0.0000000000
 Spin= Alpha
 Occup=  0.0000
  1      -0.402793968942
  2      -0.642295624323
  3       7.297725741370
  4       0.000000000000
  5       0.000000000000
  6       0.457011990429
  7       0.000000000000
  8       0.000000000000
  9       3.672547632887
 10      -0.431413482670
 11       0.000000000000
 12       0.000000000000
 13       0.246804058079
 14       0.000000000000
 15       0.402793968942
 16       0.642295624323
 17      -7.297725741370
 18       0.000000000000
 19       0.000000000000
 20       0.457011990429
 21       0.000000000000
 22       0.000000000000
 23       3.672547632887
 24       0.431413482670
 25       0.000000000000
 26       0.000000000000
 27      -0.246804058079
 28       0.000000000000
 Sym= B3u
 Ene=         0.0000000000
 Spin= Alpha
 Occup=  0.0000
  1       0.000000000000
  2       0.000000000000
  3       0.000000000000
  4      -0.321918233954
  5       0.000000000000
  6       0.000000000000
  7       0.631161521417
  8       0.000000000000
  9       0.000000000000
 10       0.000000000000
 11      -0.236207547771
 12       0.000000000000
 13       0.000000000000
 14       0.000000000000
 15       0.000000000000
 16       0.000000000000
 17       0.000000000000
 18      -0.321918233954
 19       0.000000000000
 20       0.000000000000
 21       0.631161521417
 22       0.000000000000
 23       0.000000000000
 24       0.000000000000
 25       0.236207547771
 26       0.000000000000
 27       0.000000000000
 28       0.000000000000
 Sym= Ag
 Ene=         0.3948868392
 Spin= Alpha
 Occup=  0.7898
  1       0.016339986882
  2       0.218729939490
  3      -0.598495597103
  4       0.000000000000
  5       0.000000000000
  6      -0.108252930230
  7       0.000000000000
  8       0.000000000000
  9       0.517910785236
 10       0.061159362849
 11       0.000000000000
 12       0.000000000000
 13      -0.018069485995
 14       0.000000000000
 15       0.016339986882
 16       0.218729939490
 17      -0.598495597103
 18       0.000000000000
 19       0.000000000000
 20       0.108252930230
 21       0.000000000000
 22       0.000000000000
 23      -0.517910785236
 24       0.061159362849
 25       0.000000000000
 26       0.000000000000
 27      -0.018069485995
 28       0.000000000000
 Sym= B2u
 Ene=         0.4984022206
 Spin= Alpha
 Occup=  0.9968
  1       0.000000000000
  2       0.000000000000
  3       0.000000000000
  4       0.000000000000
  5       0.356226410647
  6       0.000000000000
  7       0.000000000000
  8       0.342954534593
  9       0.000000000000
 10       0.000000000000
 11       0.000000000000
 12       0.002876547168
 13       0.000000000000
 14       0.000000000000
 15       0.000000000000
 16       0.000000000000
 17       0.000000000000
 18       0.000000000000
 19       0.356226410647
 20       0.000000000000
 21       0.000000000000
 22       0.342954534593
 23       0.000000000000
 24       0.000000000000
 25       0.000000000000
 26      -0.002876547168
 27       0.000000000000
 28       0.000000000000
 Sym= B3u
 Ene=         0.4984022206
 Spin= Alpha
 Occup=  0.9968
  1       0.000000000000
  2       0.000000000000
  3       0.000000000000
  4       0.356226410647
  5       0.000000000000
  6       0.000000000000
  7       0.342954534593
  8       0.000000000000
  9       0.000000000000
 10       0.000000000000
 11       0.002876547168
 12       0.000000000000
 13       0.000000000000
 14       0.000000000000
 15       0.000000000000
 16       0.000000000000
 17       0.000000000000
 18       0.356226410647
 19       0.000000000000
 20       0.000000000000
 21       0.342954534593
 22       0.000000000000
 23       0.000000000000
 24       0.000000000000
 25      -0.002876547168
 26       0.000000000000
 27       0.000000000000
 28       0.000000000000
 Sym= B1u
 Ene=         0.6897437627
 Spin= Alpha
 Occup=  1.3795
  1      -1.522882482740
  2      -2.818353699281
  3      19.549044560783
  4       0.000000000000
  5       0.000000000000
  6      -0.249450630119
  7       0.000000000000
  8       0.000000000000
  9      10.287504300477
 10       0.602141444331
 11       0.000000000000
 12       0.000000000000
 13      -0.098287660175
 14       0.000000000000
 15       1.522882482740
 16       2.818353699281
 17     -19.549044560783
 18       0.000000000000
 19       0.000000000000
 20      -0.249450630119
 21       0.000000000000
 22       0.000000000000
 23      10.287504300477
 24      -0.602141444331
 25       0.000000000000
 26       0.000000000000
 27       0.098287660175
 28       0.000000000000
 Sym= Ag
 Ene=         0.7459405975
 Spin= Alpha
 Occup=  1.4919
  1       0.213765110458
  2       1.402384428335
  3      -0.893198253025
  4       0.000000000000
  5       0.000000000000
  6      -0.045328783615
  7       0.000000000000
  8       0.000000000000
  9       0.351038894137
 10       0.131870799526
 11       0.000000000000
 12       0.000000000000
 13      -0.056679972773
 14       0.000000000000
 15       0.213765110458
 16       1.402384428335
 17      -0.893198253025
 18       0.000000000000
 19       0.000000000000
 20       0.045328783615
 21       0.000000000000
 22       0.000000000000
 23      -0.351038894137
 24       0.131870799526
 25       0.000000000000
 26       0.000000000000
 27      -0.056679972773
 28       0.000000000000
 Sym= Ag
 Ene=         1.0019209008
 Spin= Alpha
 Occup=  2.0038
  1       0.695501151578
  2      -0.078224979346
  3       0.042517181615
  4       0.000000000000
  5       0.000000000000
  6       0.004338089377
  7       0.000000000000
  8       0.000000000000
  9      -0.014797435246
 10      -0.006592166156
 11       0.000000000000
 12       0.000000000000
 13       0.003330474841
 14       0.000000000000
 15       0.695501151578
 16      -0.078224979346
 17       0.042517181615
 18       0.000000000000
 19       0.000000000000
 20      -0.004338089377
 21       0.000000000000
 22       0.000000000000
 23       0.014797435246
 24      -0.006592166156
 25       0.000000000000
 26       0.000000000000
 27       0.003330474841
 28       0.000000000000
 Sym= B1u
 Ene=         1.0040653743
 Spin= Alpha
 Occup=  2.0081
  1       0.730638982286
  2       0.040189212194
  3      -0.395357495087
  4       0.000000000000
  5       0.000000000000
  6       0.007106484327
  7       0.000000000000
  8       0.000000000000
  9      -0.217146289775
 10      -0.006960976158
 11       0.000000000000
 12       0.000000000000
 13       0.003204065633
 14       0.000000000000
 15      -0.730638982286
 16      -0.040189212194
 17       0.395357495087
 18       0.000000000000
 19       0.000000000000
 20       0.007106484327
 21       0.000000000000
 22       0.000000000000
 23      -0.217146289775
 24       0.006960976158
 25       0.000000000000
 26       0.000000000000
 27      -0.003204065633
 28       0.000000000000
[Molden Format]
[Atoms] (AU)
N    1    7         0.000000000000       0.000000000000      -1.017854395323
N    2    7         0.000000000000       0.000000000000       1.017854395323
[GTO]
  1 0
 s    8  1.00
     9046.0000000000         0.0007000000
     1357.0000000000         0.0053890000
      309.3000000000         0.0274060000
       87.7300000000         0.1032070000
       28.5600000000         0.2787230000
       10.2100000000         0.4485400000
        3.8380000000         0.2782380000
        0.7466000000         0.0154400000
 s    8  1.00
     9046.0000000000        -0.0001530000
     1357.0000000000        -0.0012080000
      309.3000000000        -0.0059920000
       87.7300000000        -0.0245440000
       28.5600000000        -0.0674590000
       10.2100000000        -0.1580780000
        3.8380000000        -0.1218310000
        0.7466000000         0.5490030000
 s    1  1.00
        0.2248000000         1.0000000000
 p    3  1.00
       13.5500000000         0.0399190000
        2.9170000000         0.2171690000
        0.7973000000         0.5103190000
 p    1  1.00
        0.2185000000         1.0000000000
 d    1  1.00
        0.8170000000         1.0000000000

  2 0
 s    8  1.00
     9046.0000000000         0.0007000000
     1357.0000000000         0.0053890000
      309.3000000000         0.0274060000
       87.7300000000         0.1032070000
       28.5600000000         0.2787230000
       10.2100000000         0.4485400000
        3.8380000000         0.2782380000
        0.7466000000         0.0154400000
 s    8  1.00
     9046.0000000000        -0.0001530000
     1357.0000000000        -0.0012080000
      309.3000000000        -0.0059920000
       87.7300000000        -0.0245440000
       28.5600000000        -0.0674590000
       10.2100000000        -0.1580780000
        3.8380000000        -0.1218310000
        0.7466000000         0.5490030000
 s    1  1.00
        0.2248000000         1.0000000000
 p    3  1.00
       13.5500000000         0.0399190000
        2.9170000000         0.2171690000
        0.7973000000         0.5103190000
 p    1  1.00
        0.2185000000         1.0000000000
 d    1  1.00
        0.8170000000         1.0000000000

[5D]
[9G]

[MO]
 Sym= B1u
 Ene=        -0.0000000000
 Spin= Alpha
 Occup= -0.0000
  1       2.714740189426
  2       4.518749390021
  3     -73.343045515486
  4       0.000000000000
  5       0.000000000000
  6       0.793009448149
  7       0.000000000000
  8       0.000000000000
  9     -40.759423440576
 10      -1.676917562825
 11       0.000000000000
 12       0.000000000000
 13       0.264185853379
 14       0.000000000000
 15      -2.714740189426
 16      -4.518749390021
 17      73.343045515486
 18       0.000000000000
 19       0.000000000000
 20       0.793009448149
 21       0.000000000000
 22       0.000000000000
 23     -40.759423440576
 24       1.676917562825
 25       0.000000000000
 26       0.000000000000
 27      -0.264185853379
 28       0.000000000000
 Sym= B1u
 Ene=        -0.0000000000
 Spin= Alpha
 Occup= -0.0000
  1       0.599471312830
  2       1.244228521295
  3      -3.366014844922
  4       0.000000000000
  5       0.000000000000
  6       1.225759068855
  7       0.000000000000
  8       0.000000000000
  9      -2.287003323750
 10       0.899586221753
 11       0.000000000000
 12       0.000000000000
 13       0.029788572019
 14       0.000000000000
 15      -0.599471312830
 16      -1.244228521295
 17       3.366014844922
 18       0.000000000000
 19       0.000000000000
 20       1.225759068855
 21       0.000000000000
 22       0.000000000000
 23      -2.287003323750
 24      -0.899586221753
 25       0.000000000000
 26       0.000000000000
 27      -0.029788572019
 28       0.000000000000
 Sym= Ag
 Ene=        -0.0000000000
 Spin= Alpha
 Occup= -0.0000
  1      -0.599804806340
  2      -0.306430868433
  3       0.365320348441
  4       0.000000000000
  5       0.000000000000
  6       1.055866215090
  7       0.000000000000
  8       0.000000000000
  9       0.124253248423
 10       0.092261800156
 11       0.000000000000
 12       0.000000000000
 13      -0.054492821064
 14       0.000000000000
 15      -0.599804806340
 16      -0.306430868433
 17       0.365320348441
 18       0.000000000000
 19       0.000000000000
 20      -1.055866215090
 21       0.000000000000
 22       0.000000000000
 23      -0.124253248423
 24       0.092261800156
 25       0.000000000000
 26       0.000000000000
 27      -0.054492821064
 28       0.000000000000
 Sym= B1u
 Ene=        -0.0000000000
 Spin= Alpha
 Occup= -0.0000
  1       1.165058255093
  2       1.941085225133
  3     -27.185853739987
  4       0.000000000000
  5       0.000000000000
  6      -0.607498654224
  7       0.000000000000
  8       0.000000000000
  9     -15.225445707258
 10      -1.211852089905
 11       0.000000000000
 12       0.000000000000
 13      -0.046015553589
 14       0.000000000000
 15      -1.165058255093
 16      -1.941085225133
 17      27.185853739987
 18       0.000000000000
 19       0.000000000000
 20      -0.607498654224
 21       0.000000000000
 22       0.000000000000
 23     -15.225445707258
 24       1.211852089905
 25       0.000000000000
 26       0.000000000000
 27       0.046015553589
 28       0.000000000000
 Sym= Ag
 Ene=        -0.0000000000
 Spin= Alpha
 Occup= -0.0000
  1       0.157526801800
  2       0.366696219480
  3       0.008129964461
  4       0.000000000000
  5       0.000000000000
  6       0.795406559284
  7       0.000000000000
  8       0.000000000000
  9      -1.014723713903
 10      -0.510084281383
 11       0.000000000000
 12       0.000000000000
 13       0.022165669613
 14       0.000000000000
 15       0.157526801800
 16       0.366696219480
 17       0.008129964461
 18       0.000000000000
 19       0.000000000000
 20      -0.795406559284
 21       0.000000000000
 22       0.000000000000
 23       1.014723713903
 24      -0.510084281383
 25       0.000000000000
 26       0.000000000000
 27       0.022165669613
 28       0.000000000000
 Sym= B2u
 Ene=        -0.0000000000
 Spin= Alpha
 Occup= -0.0000
  1       0.000000000000
  2       0.000000000000
  3       0.000000000000
  4       0.000000000000
  5      -0.339186789321
  6       0.000000000000
  7       0.000000000000