[Molden Format]
[Atoms] (AU)
O    1    8         0.000000000000       0.000000000000       0.000000000000
H    2    1         0.000000000000       0.000000000000       1.747522265498
H    3    1         0.000000000000       0.000000000000      -1.747522265498
[GTO]
  1 0
 s    8  1.00
    11720.0000000000         0.0007100000
     1759.0000000000         0.0054700000
      400.8000000000         0.0278370000
      113.7000000000         0.1048000000
       37.0300000000         0.2830620000
       13.2700000000         0.4487190000
        5.0250000000         0.2709520000
        1.0130000000         0.0154580000
 s    8  1.00
    11720.0000000000        -0.0001600000
     1759.0000000000        -0.0012630000
      400.8000000000        -0.0062670000
      113.7000000000        -0.0257160000
       37.0300000000        -0.0709240000
       13.2700000000        -0.1654110000
        5.0250000000        -0.1169550000
        1.0130000000         0.5573680000
 s    1  1.00
        0.3023000000         1.0000000000
 p    3  1.00
       17.7000000000         0.0430180000
        3.8540000000         0.2289130000
        1.0460000000         0.5087280000
 p    1  1.00
        0.2753000000         1.0000000000
 d    1  1.00
        1.1850000000         1.0000000000

  2 0
 s    3  1.00
       13.0100000000         0.0196850000
        1.9620000000         0.1379770000
        0.4446000000         0.4781480000
 s    1  1.00
        0.1220000000         1.0000000000
 p    1  1.00
        0.7270000000         1.0000000000

  3 0
 s    3  1.00
       13.0100000000         0.0196850000
        1.9620000000         0.1379770000
        0.4446000000         0.4781480000
 s    1  1.00
        0.1220000000         1.0000000000
 p    1  1.00
        0.7270000000         1.0000000000

[5D]
[9G]

[MO]
 Sym= Ag
 Ene=       -20.5011909710
 Spin= Alpha
 Occup=  2.0000
  1       1.001043217897
  2       0.001692307231
  3      -0.002546473044
  4       0.000000000000
  5       0.000000000000
  6       0.000000000000
  7       0.000000000000
  8       0.000000000000
  9       0.000000000000
 10       0.000519796098
 11       0.000000000000
 12       0.000000000000
 13      -0.000000000000
 14       0.000000000000
 15      -0.000576467685
 16       0.000511104691
 17       0.000000000000
 18       0.000000000000
 19       0.000779381836
 20      -0.000576467685
 21       0.000511104691
 22       0.000000000000
 23       0.000000000000
 24      -0.000779381836
 Sym= Ag
 Ene=        -1.3080100746
 Spin= Alpha
 Occup=  2.0000
  1       0.016970137185
  2      -0.434666535950
  3      -0.414040547024
  4       0.000000000000
  5       0.000000000000
  6       0.000000000000
  7       0.000000000000
  8       0.000000000000
  9       0.000000000000
 10      -0.013604332821
 11       0.000000000000
 12       0.000000000000
 13       0.000000000000
 14       0.000000000000
 15      -0.175612463832
 16      -0.009235523487
 17       0.000000000000
 18       0.000000000000
 19       0.035944498152
 20      -0.175612463832
 21      -0.009235523487
 22       0.000000000000
 23       0.000000000000
 24      -0.035944498152
 Sym= B1u
 Ene=        -0.7838520960
 Spin= Alpha
 Occup=  2.0000
  1       0.000000000000
  2       0.000000000000
  3       0.000000000000
  4       0.000000000000
  5       0.000000000000
  6       0.478091784525
  7       0.000000000000
  8       0.000000000000
  9       0.117087596023
 10       0.000000000000
 11       0.000000000000
 12       0.000000000000
 13       0.000000000000
 14       0.000000000000
 15       0.369430792038
 16       0.074928869297
 17       0.000000000000
 18       0.000000000000
 19      -0.050190366992
 20      -0.369430792038
 21      -0.074928869297
 22       0.000000000000
 23       0.000000000000
 24      -0.050190366992
 Sym= B2u
 Ene=        -0.4690753363
 Spin= Alpha
 Occup=  2.0000
  1       0.000000000000
  2       0.000000000000
  3       0.000000000000
  4       0.000000000000
  5       0.618741381972
  6       0.000000000000
  7       0.000000000000
  8       0.507246578236
  9       0.000000000000
 10       0.000000000000
 11       0.000000000000
 12       0.000000000000
 13       0.000000000000
 14       0.000000000000
 15       0.000000000000
 16       0.000000000000
 17       0.000000000000
 18       0.031628234129
 19       0.000000000000
 20       0.000000000000
 21       0.000000000000
 22       0.000000000000
 23       0.031628234129
 24       0.000000000000
 Sym= B3u
 Ene=        -0.4690753363
 Spin= Alpha
 Occup=  2.0000
  1       0.000000000000
  2       0.000000000000
  3       0.000000000000
  4       0.618741381972
  5       0.000000000000
  6       0.000000000000
  7       0.507246578236
  8       0.000000000000
  9       0.000000000000
 10       0.000000000000
 11       0.000000000000
 12       0.000000000000
 13       0.000000000000
 14       0.000000000000
 15       0.000000000000
 16       0.000000000000
 17       0.031628234129
 18       0.000000000000
 19       0.000000000000
 20       0.000000000000
 21       0.000000000000
 22       0.031628234129
 23       0.000000000000
 24       0.000000000000
 Sym= Ag
 Ene=         0.1886489484
 Spin= Alpha
 Occup=  0.0000
  1       0.056736564664
  2      -0.106686532946
  3      -1.157656637332
  4       0.000000000000
  5       0.000000000000
  6       0.000000000000
  7       0.000000000000
  8       0.000000000000
  9       0.000000000000
 10      -0.014351857755
 11       0.000000000000
 12       0.000000000000
 13       0.000000000000
 14       0.000000000000
 15       0.152141435607
 16       0.842435062199
 17       0.000000000000
 18       0.000000000000
 19      -0.026660915396
 20       0.152141435607
 21       0.842435062199
 22       0.000000000000
 23       0.000000000000
 24       0.026660915396
 Sym= B1u
 Ene=         0.2543377411
 Spin= Alpha
 Occup=  0.0000
  1       0.000000000000
  2       0.000000000000
  3       0.000000000000
  4       0.000000000000
  5       0.000000000000
  6       0.244580079145
  7       0.000000000000
  8       0.000000000000
  9       0.745104873394
 10       0.000000000000
 11       0.000000000000
 12       0.000000000000
 13       0.000000000000
 14       0.000000000000
 15      -0.013582524394
 16      -1.361073150218
 17       0.000000000000
 18       0.000000000000
 19       0.034997515301
 20       0.013582524394
 21       1.361073150218
 22       0.000000000000
 23       0.000000000000
 24       0.034997515301
 Sym= Ag
 Ene=         0.6366496857
 Spin= Alpha
 Occup=  0.0000
  1       0.007336035705
  2      -0.115224141419
  3      -0.091449967535
  4       0.000000000000
  5       0.000000000000
  6       0.000000000000
  7       0.000000000000
  8       0.000000000000
  9       0.000000000000
 10       0.125823817935
 11       0.000000000000
 12       0.000000000000
 13       0.000000000000
 14       0.000000000000
 15       0.888981693856
 16      -0.554203795700
 17       0.000000000000
 18       0.000000000000
 19       0.163312421664
 20       0.888981693856
 21      -0.554203795700
 22       0.000000000000
 23       0.000000000000
 24      -0.163312421664
 Sym= B1u
 Ene=         1.0460867342
 Spin= Alpha
 Occup=  0.0000
  1       0.000000000000
  2       0.000000000000
  3       0.000000000000
  4       0.000000000000
  5       0.000000000000
  6       0.594574601365
  7       0.000000000000
  8       0.000000000000
  9      -0.751180404659
 10       0.000000000000
 11       0.000000000000
 12       0.000000000000
 13       0.000000000000
 14       0.000000000000
 15      -0.417285625838
 16       0.855683735343
 17       0.000000000000
 18       0.000000000000
 19      -0.404373420276
 20       0.417285625838
 21      -0.855683735343
 22       0.000000000000
 23       0.000000000000
 24      -0.404373420276
 Sym= B2u
 Ene=         1.2193475294
 Spin= Alpha
 Occup=  0.0000
  1       0.000000000000
  2       0.000000000000
  3       0.000000000000
  4       0.000000000000
  5       0.973186151993
  6       0.000000000000
  7       0.000000000000
  8      -1.047634951990
  9       0.000000000000
 10       0.000000000000
 11       0.000000000000
 12       0.000000000000
 13       0.000000000000
 14       0.000000000000
 15       0.000000000000
 16       0.000000000000
 17       0.000000000000
 18       0.027518535341
 19       0.000000000000
 20       0.000000000000
 21       0.000000000000
 22       0.000000000000
 23       0.027518535341
 24       0.000000000000
 Sym= B3u
 Ene=         1.2193475294
 Spin= Alpha
 Occup=  0.0000
  1       0.000000000000
  2       0.000000000000
  3       0.000000000000
  4       0.973186151993
  5       0.000000000000
  6       0.000000000000
  7      -1.047634951990
  8       0.000000000000
  9       0.000000000000
 10       0.000000000000
 11       0.000000000000
 12       0.000000000000
 13       0.000000000000
 14       0.000000000000
 15       0.000000000000
 16       0.000000000000
 17       0.027518535341
 18       0.000000000000
 19       0.000000000000
 20       0.000000000000
 21       0.000000000000
 22       0.027518535341
 23       0.000000000000
 24       0.000000000000
 Sym= B2g
 Ene=         1.3867022219
 Spin= Alpha
 Occup=  0.0000
  1       0.000000000000
  2       0.000000000000
  3       0.000000000000
  4       0.000000000000
  5       0.000000000000
  6       0.000000000000
  7       0.000000000000
  8       0.000000000000
  9       0.000000000000
 10       0.000000000000
 11       0.111439909862
 12       0.000000000000
 13       0.000000000000
 14       0.000000000000
 15       0.000000000000
 16       0.000000000000
 17       0.669644931070
 18       0.000000000000
 19       0.000000000000
 20       0.000000000000
 21       0.000000000000
 22      -0.669644931070
 23       0.000000000000
 24       0.000000000000
 Sym= B3g
 Ene=         1.3867022219
 Spin= Alpha
 Occup=  0.0000
  1       0.000000000000
  2       0.000000000000
  3       0.000000000000
  4       0.000000000000
  5       0.000000000000
  6       0.000000000000
  7       0.000000000000
  8       0.000000000000
  9       0.000000000000
 10       0.000000000000
 11       0.000000000000
 12       0.111439909862
 13       0.000000000000
 14       0.000000000000
 15       0.000000000000
 16       0.000000000000
 17       0.000000000000
 18       0.669644931070
 19       0.000000000000
 20       0.000000000000
 21       0.000000000000
 22       0.000000000000
 23      -0.669644931070
 24       0.000000000000
 Sym= Ag
 Ene=         1.6856346183
 Spin= Alpha
 Occup=  0.0000
  1       0.635770478144
  2       1.446406427823
  3      -3.095474345298
  4       0.000000000000
  5       0.000000000000
  6       0.000000000000
  7       0.000000000000
  8       0.000000000000
  9       0.000000000000
 10      -0.059402857283
 11       0.000000000000
 12       0.000000000000
 13      -0.000000000000
 14       0.000000000000
 15       0.490722425554
 16       0.591843663937
 17       0.000000000000
 18       0.000000000000
 19      -0.532526914202
 20       0.490722425554
 21       0.591843663937
 22       0.000000000000
 23       0.000000000000
 24       0.532526914202
 Sym= B1u
 Ene=         1.7238147836
 Spin= Alpha
 Occup=  0.0000
  1       0.000000000000
  2       0.000000000000
  3       0.000000000000
  4       0.000000000000
  5       0.000000000000
  6       0.514532336755
  7       0.000000000000
  8       0.000000000000
  9      -2.840457158898
 10       0.000000000000
 11       0.000000000000
 12       0.000000000000
 13       0.000000000000
 14       0.000000000000
 15       1.493138663856
 16       0.485362547314
 17       0.000000000000
 18       0.000000000000
 19      -0.031690372053
 20      -1.493138663856
 21      -0.485362547314
 22       0.000000000000
 23       0.000000000000
 24      -0.031690372053
 Sym= B2u
 Ene=         1.8965505838
 Spin= Alpha
 Occup=  0.0000
  1       0.000000000000
  2       0.000000000000
  3       0.000000000000
  4       0.000000000000
  5       0.079478294830
  6       0.000000000000
  7       0.000000000000
  8       0.676682245567
  9       0.000000000000
 10       0.000000000000
 11       0.000000000000
 12       0.000000000000
 13       0.000000000000
 14       0.000000000000
 15       0.000000000000
 16       0.000000000000
 17       0.000000000000
 18      -0.858625527096
 19       0.000000000000
 20       0.000000000000
 21       0.000000000000
 22       0.000000000000
 23      -0.858625527096
 24       0.000000000000
 Sym= B3u
 Ene=         1.8965505838
 Spin= Alpha
 Occup=  0.0000
  1       0.000000000000
  2       0.000000000000
  3       0.000000000000
  4       0.079478294830
  5       0.000000000000
  6       0.000000000000
  7       0.676682245567
  8       0.000000000000
  9       0.000000000000
 10       0.000000000000
 11       0.000000000000
 12       0.000000000000
 13       0.000000000000
 14       0.000000000000
 15       0.000000000000
 16       0.000000000000
 17      -0.858625527096
 18       0.000000000000
 19       0.000000000000
 20       0.000000000000
 21       0.000000000000
 22      -0.858625527096
 23       0.000000000000
 24       0.000000000000
 Sym= Ag
 Ene=         2.4230965488
 Spin= Alpha
 Occup=  0.0000
  1       0.476978738699
  2       1.151250012596
  3       0.335828318915
  4       0.000000000000
  5       0.000000000000
  6       0.000000000000
  7       0.000000000000
  8       0.000000000000
  9       0.000000000000
 10      -0.053112087184
 11       0.000000000000
 12       0.000000000000
 13       0.000000000000
 14       0.000000000000
 15      -0.386897703890
 16      -0.120877772061
 17       0.000000000000
 18       0.000000000000
 19       0.943850491480
 20      -0.386897703890
 21      -0.120877772061
 22       0.000000000000
 23       0.000000000000
 24      -0.943850491480
 Sym= B1u
 Ene=         2.9844233955
 Spin= Alpha
 Occup=  0.0000
  1       0.000000000000
  2       0.000000000000
  3       0.000000000000
  4       0.000000000000
  5       0.000000000000
  6       1.113568349829
  7       0.000000000000
  8       0.000000000000
  9       1.635574944424
 10       0.000000000000
 11       0.000000000000
 12       0.000000000000
 13       0.000000000000
 14       0.000000000000
 15      -1.331222483165
 16      -0.490130940917
 17       0.000000000000
 18       0.000000000000
 19       1.120342624298
 20       1.331222483165
 21       0.490130940917
 22       0.000000000000
 23       0.000000000000
 24       1.120342624298
 Sym= Ag
 Ene=         2.9936881082
 Spin= Alpha
 Occup=  0.0000
  1      -0.000000000000
  2      -0.000000000000
  3      -0.000000000000
  4       0.000000000000
  5       0.000000000000
  6       0.000000000000
  7       0.000000000000
  8       0.000000000000
  9       0.000000000000
 10      -0.000000000000
 11       0.000000000000
 12       0.000000000000
 13       1.000000000000
 14       0.000000000000
 15       0.000000000000
 16       0.000000000000
 17       0.000000000000
 18       0.000000000000
 19      -0.000000000000
 20       0.000000000000
 21       0.000000000000
 22       0.000000000000
 23       0.000000000000
 24       0.000000000000
 Sym= B1g
 Ene=         2.9936881082
 Spin= Alpha
 Occup=  0.0000
  1       0.000000000000
  2       0.000000000000
  3       0.000000000000
  4       0.000000000000
  5       0.000000000000
  6       0.000000000000
  7       0.000000000000
  8       0.000000000000
  9       0.000000000000
 10       0.000000000000
 11       0.000000000000
 12       0.000000000000
 13       0.000000000000
 14       1.000000000000
 15       0.000000000000
 16       0.000000000000
 17       0.000000000000
 18       0.000000000000
 19       0.000000000000
 20       0.000000000000
 21       0.000000000000
 22       0.000000000000
 23       0.000000000000
 24       0.000000000000
 Sym= B2g
 Ene=         3.5901121842
 Spin= Alpha
 Occup=  0.0000
  1       0.000000000000
  2       0.000000000000
  3       0.000000000000
  4       0.000000000000
  5       0.000000000000
  6       0.000000000000
  7       0.000000000000
  8       0.000000000000
  9       0.000000000000
 10       0.000000000000
 11       1.136473161865
 12       0.000000000000
 13       0.000000000000
 14       0.000000000000
 15       0.000000000000
 16       0.000000000000
 17      -0.459729541384
 18       0.000000000000
 19       0.000000000000
 20       0.000000000000
 21       0.000000000000
 22       0.459729541384
 23       0.000000000000
 24       0.000000000000
 Sym= B3g
 Ene=         3.5901121842
 Spin= Alpha
 Occup=  0.0000
  1       0.000000000000
  2       0.000000000000
  3       0.000000000000
  4       0.000000000000
  5       0.000000000000
  6       0.000000000000
  7       0.000000000000
  8       0.000000000000
  9       0.000000000000
 10       0.000000000000
 11       0.000000000000
 12       1.136473161865
 13       0.000000000000
 14       0.000000000000
 15       0.000000000000
 16       0.000000000000
 17       0.000000000000
 18      -0.459729541384
 19       0.000000000000
 20       0.000000000000
 21       0.000000000000
 22       0.000000000000
 23       0.459729541384
 24       0.000000000000
 Sym= Ag
 Ene=         4.7094346068
 Spin= Alpha
 Occup=  0.0000
  1       0.021834837350
  2       0.169196841377
  3       2.373628095084
  4       0.000000000000
  5       0.000000000000
  6       0.000000000000
  7       0.000000000000
  8       0.000000000000
  9       0.000000000000
 10       1.577130952854
 11       0.000000000000
 12       0.000000000000
 13       0.000000000000
 14       0.000000000000
 15      -1.411357746856
 16      -0.170447782208
 17       0.000000000000
 18       0.000000000000
 19       1.033536909922
 20      -1.411357746856
 21      -0.170447782208
 22       0.000000000000
 23       0.000000000000
 24      -1.033536909922
[Molden Format]
[Atoms] (AU)
O    1    8         0.000000000000       0.000000000000       0.000000000000
H    2    1         0.000000000000       0.000000000000       1.747522265498
H    3    1         0.000000000000       0.000000000000      -1.747522265498
[GTO]
  1 0
 s    8  1.00
    11720.0000000000         0.0007100000
     1759.0000000000         0.0054700000
      400.8000000000         0.0278370000
      113.7000000000         0.1048000000
       37.0300000000         0.2830620000
       13.2700000000         0.4487190000
        5.0250000000         0.2709520000
        1.0130000000         0.0154580000
 s    8  1.00
    11720.0000000000        -0.0001600000
     1759.0000000000        -0.0012630000
      400.8000000000        -0.0062670000
      113.7000000000        -0.0257160000
       37.0300000000        -0.0709240000
       13.2700000000        -0.1654110000
        5.0250000000        -0.1169550000
        1.0130000000         0.5573680000
 s    1  1.00
        0.3023000000         1.0000000000
 p    3  1.00
       17.7000000000         0.0430180000
        3.8540000000         0.2289130000
        1.0460000000         0.5087280000
 p    1  1.00
        0.2753000000         1.0000000000
 d    1  1.00
        1.1850000000         1.0000000000

  2 0
 s    3  1.00
       13.0100000000         0.0196850000
        1.9620000000         0.1379770000
        0.4446000000         0.4781480000
 s    1  1.00
        0.1220000000         1.0000000000
 p    1  1.00
        0.7270000000         1.0000000000

  3 0
 s    3  1.00
       13.0100000000         0.0196850000
        1.9620000000         0.1379770000
        0.4446000000         0.4781480000
 s    1  1.00
        0.1220000000         1.0000000000
 p    1  1.00
        0.7270000000         1.0000000000

[5D]
[9G]

[MO]
 Sym= Ag
 Ene=       -20.5011909710
 Spin= Alpha
 Occup=  2.0000
  1       1.001043217897
  2       0.001692307231
  3      -0.002546473044
  4       0.000000000000
  5       0.000000000000
  6       0.000000000000
  7       0.000000000000
  8       0.000000000000
  9       0.000000000000
 10       0.000519796098
 11       0.000000000000
 12       0.000000000000
 13      -0.000000000000
 14       0.000000000000
 15      -0.000576467685
 16       0.000511104691
 17       0.000000000000
 18       0.000000000000
 19       0.000779381836
 20      -0.000576467685
 21       0.000511104691
 22       0.000000000000
 23       0.000000000000
 24      -0.000779381836
 Sym= Ag
 Ene=        -1.3080100746
 Spin= Alpha
 Occup=  2.0000
  1       0.016970137185
  2      -0.434666535950
  3      -0.414040547024
  4       0.000000000000
  5       0.000000000000
  6       0.000000000000
  7       0.000000000000
  8       0.000000000000
  9       0.000000000000
 10      -0.013604332821
 11       0.000000000000
 12       0.000000000000
 13       0.000000000000
 14       0.000000000000
 15      -0.175612463832
 16      -0.009235523487
 17       0.000000000000
 18       0.000000000000
 19       0.035944498152
 20      -0.175612463832
 21      -0.009235523487
 22       0.000000000000
 23       0.000000000000
 24      -0.035944498152
 Sym= B1u
 Ene=        -0.7838520960
 Spin= Alpha
 Occup=  2.0000
  1       0.000000000000
  2       0.000000000000
  3       0.000000000000
  4       0.000000000000
  5       0.000000000000
  6       0.478091784525
  7       0.000000000000
  8       0.000000000000
  9       0.117087596023
 10       0.000000000000
 11       0.000000000000
 12       0.000000000000
 13       0.000000000000
 14       0.000000000000
 15       0.369430792038
 16       0.074928869297
 17       0.000000000000
 18       0.000000000000
 19      -0.050190366992
 20      -0.369430792038
 21      -0.074928869297
 22       0.000000000000
 23       0.000000000000
 24      -0.050190366992
 Sym= B2u
 Ene=        -0.4690753363
 Spin= Alpha
 Occup=  2.0000
  1       0.000000000000
  2       0.000000000000
  3       0.000000000000
  4       0.000000000000
  5       0.618741381972
  6       0.000000000000
  7       0.000000000000
  8       0.507246578236
  9       0.000000000000
 10       0.000000000000
 11       0.000000000000
 12       0.000000000000
 13       0.000000000000
 14       0.000000000000
 15       0.000000000000
 16       0.000000000000
 17       0.000000000000
 18       0.031628234129
 19       0.000000000000
 20       0.000000000000
 21       0.000000000000
 22       0.000000000000
 23       0.031628234129
 24       0.000000000000
 Sym= B3u
 Ene=        -0.4690753363
 Spin= Alpha
 Occup=  2.0000
  1       0.000000000000
  2       0.000000000000
  3       0.000000000000
  4       0.618741381972
  5       0.000000000000
  6       0.000000000000
  7       0.507246578236
  8       0.000000000000
  9       0.000000000000
 10       0.000000000000
 11       0.000000000000
 12       0.000000000000
 13       0.000000000000
 14       0.000000000000
 15       0.000000000000
 16       0.000000000000
 17       0.031628234129
 18       0.000000000000
 19       0.000000000000
 20       0.000000000000
 21       0.000000000000
 22       0.031628234129
 23       0.000000000000
 24       0.000000000000
 Sym= Ag
 Ene=         0.1886489484
 Spin= Alpha
 Occup=  0.0000
  1       0.056736564664
  2      -0.106686532946
  3      -1.157656637332
  4       0.000000000000
  5       0.000000000000
  6       0.000000000000
  7       0.000000000000
  8       0.000000000000
  9       0.000000000000
 10      -0.014351857755
 11       0.000000000000
 12       0.000000000000
 13       0.000000000000
 14       0.000000000000
 15       0.152141435607
 16       0.842435062199
 17       0.000000000000
 18       0.000000000000
 19      -0.026660915396
 20       0.152141435607
 21       0.842435062199
 22       0.000000000000
 23       0.000000000000
 24       0.026660915396
 Sym= B1u
 Ene=         0.2543377411
 Spin= Alpha
 Occup=  0.0000
  1       0.000000000000
  2       0.000000000000
  3       0.000000000000
  4       0.000000000000
  5       0.000000000000
  6       0.244580079145
  7       0.000000000000
  8       0.000000000000
  9       0.745104873394
 10       0.000000000000
 11       0.000000000000
 12       0.000000000000
 13       0.000000000000
 14       0.000000000000
 15      -0.013582524394
 16      -1.361073150218
 17       0.000000000000
 18       0.000000000000
 19       0.034997515301
 20       0.013582524394
 21       1.361073150218
 22       0.000000000000
 23       0.000000000000
 24       0.034997515301
 Sym= Ag
 Ene=         0.6366496857
 Spin= Alpha
 Occup=  0.0000
  1       0.007336035705
  2      -0.115224141419
  3      -0.091449967535
  4       0.000000000000
  5       0.000000000000
  6       0.000000000000
  7       0.000000000000
  8       0.000000000000
  9       0.000000000000
 10       0.125823817935
 11       0.000000000000
 12       0.000000000000
 13       0.000000000000
 14       0.000000000000
 15       0.888981693856
 16      -0.554203795700
 17       0.000000000000
 18       0.000000000000
 19       0.163312421664
 20       0.888981693856
 21      -0.554203795700
 22       0.000000000000
 23       0.000000000000
 24      -0.163312421664
 Sym= B1u
 Ene=         1.0460867342
 Spin= Alpha
 Occup=  0.0000
  1       0.000000000000
  2       0.000000000000
  3       0.000000000000
  4       0.000000000000
  5       0.000000000000
  6       0.594574601365
  7       0.000000000000
  8       0.000000000000
  9      -0.751180404659
 10       0.000000000000
 11       0.000000000000
 12       0.000000000000
 13       0.000000000000
 14       0.000000000000
 15      -0.417285625838
 16       0.855683735343
 17       0.000000000000
 18       0.000000000000
 19      -0.404373420276
 20       0.417285625838
 21      -0.855683735343
 22       0.000000000000
 23       0.000000000000
 24      -0.404373420276
 Sym= B2u
 Ene=         1.2193475294
 Spin= Alpha
 Occup=  0.0000
  1       0.000000000000
  2       0.000000000000
  3       0.000000000000
  4       0.000000000000
  5       0.973186151993
  6       0.000000000000
  7       0.000000000000
  8      -1.047634951990
  9       0.000000000000
 10       0.000000000000
 11       0.000000000000
 12       0.000000000000
 13       0.000000000000
 14       0.000000000000
 15       0.000000000000
 16       0.000000000000
 17       0.000000000000
 18       0.027518535341
 19       0.000000000000
 20       0.000000000000
 21       0.000000000000
 22       0.000000000000
 23       0.027518535341
 24       0.000000000000
 Sym= B3u
 Ene=         1.2193475294
 Spin= Alpha
 Occup=  0.0000
  1       0.000000000000
  2       0.000000000000
  3       0.000000000000
  4       0.973186151993
  5       0.000000000000
  6       0.000000000000
  7      -1.047634951990
  8       0.000000000000
  9       0.000000000000
 10       0.000000000000
 11       0.000000000000
 12       0.000000000000
 13       0.000000000000
 14       0.000000000000
 15       0.000000000000
 16       0.000000000000
 17       0.027518535341
 18       0.000000000000
 19       0.000000000000
 20       0.000000000000
 21       0.000000000000
 22       0.027518535341
 23       0.000000000000
 24       0.000000000000
 Sym= B2g
 Ene=         1.3867022219
 Spin= Alpha
 Occup=  0.0000
  1       0.000000000000
  2       0.000000000000
  3       0.000000000000
  4       0.000000000000
  5       0.000000000000
  6       0.000000000000
  7       0.000000000000
  8       0.000000000000
  9       0.000000000000
 10       0.000000000000
 11       0.111439909862
 12       0.000000000000
 13       0.000000000000
 14       0.000000000000
 15       0.000000000000
 16       0.000000000000
 17       0.669644931070
 18       0.000000000000
 19       0.000000000000
 20       0.000000000000
 21       0.000000000000
 22      -0.669644931070
 23       0.000000000000
 24       0.000000000000
 Sym= B3g
 Ene=         1.3867022219
 Spin= Alpha
 Occup=  0.0000
  1       0.000000000000
  2       0.000000000000
  3       0.000000000000
  4       0.000000000000
  5       0.000000000000
  6       0.000000000000
  7       0.000000000000
  8       0.000000000000
  9       0.000000000000
 10       0.000000000000
 11       0.000000000000
 12       0.111439909862
 13       0.000000000000
 14       0.000000000000
 15       0.000000000000
 16       0.000000000000
 17       0.000000000000
 18       0.669644931070
 19       0.000000000000
 20       0.000000000000
 21       0.000000000000
 22       0.000000000000
 23      -0.669644931070
 24       0.000000000000
 Sym= Ag
 Ene=         1.6856346183
 Spin= Alpha
 Occup=  0.0000
  1       0.635770478144
  2       1.446406427823
  3      -3.095474345298
  4       0.000000000000
  5       0.000000000000
  6       0.000000000000
  7       0.000000000000
  8       0.000000000000
  9       0.000000000000
 10      -0.059402857283
 11       0.000000000000
 12       0.000000000000
 13      -0.000000000000
 14       0.000000000000
 15       0.490722425554
 16       0.591843663937
 17       0.000000000000
 18       0.000000000000
 19      -0.532526914202
 20       0.490722425554
 21       0.591843663937
 22       0.000000000000
 23       0.000000000000
 24       0.532526914202
 Sym= B1u
 Ene=         1.7238147836
 Spin= Alpha
 Occup=  0.0000
  1       0.000000000000
  2       0.000000000000
  3       0.000000000000
  4       0.000000000000
  5       0.000000000000
  6       0.514532336755
  7       0.000000000000
  8       0.000000000000
  9      -2.840457158898
 10       0.000000000000
 11       0.000000000000
 12       0.000000000000
 13       0.000000000000
 14       0.000000000000
 15       1.493138663856
 16       0.485362547314
 17       0.000000000000
 18       0.000000000000
 19      -0.031690372053
 20      -1.493138663856
 21      -0.485362547314
 22       0.000000000000
 23       0.000000000000
 24      -0.031690372053
 Sym= B2u
 Ene=         1.8965505838
 Spin= Alpha
 Occup=  0.0000
  1       0.000000000000
  2       0.000000000000
  3       0.000000000000
  4       0.000000000000
  5       0.079478294830
  6       0.000000000000
  7       0.000000000000
  8       0.676682245567
  9       0.000000000000
 10       0.000000000000
 11       0.000000000000
 12       0.000000000000
 13       0.000000000000