Created by /ul/ajaramil/scripts/createLammpsInput.pl on Tue May  8 00:18:08 2012

          54 atoms
          54 bonds
          93 angles
         134 dihedrals
           0 impropers

           4 atom types
           6 bond types
           3 angle types
           8 dihedral types
           0 improper types

          -1000 1000 xlo xhi
          -1000 1000 ylo yhi
          -1000 1000 zlo zhi

Masses

    1   1.0080 # H_     
    2  12.0110 # C_3    
    3  14.0067 # N_3    
    4  15.9994 # O_3    

Pair Coeffs

    1      0.01520000      2.84642134 
    2      0.09510000      3.47299041 
    3      0.07740000      3.26256026 
    4      0.09570000      3.03315369                 

Bond Coeffs

    1             350            1.42 # O_3 C_3 
    2             350            0.98 # O_3 H_ 
    3             350           1.462 # N_3 C_3 
    4             350           1.022 # N_3 H_ 
    5             350            1.53 # C_3 C_3 
    6             350            1.09 # C_3 H_                 

Angle Coeffs

    1              50          104.51 # X O_3 X 
    2              50           106.7 # X N_3 X 
    3              50         109.471 # X C_3 X                 

Dihedral Coeffs

    1             0.5               3               0             0.4 # X O_3 C_3 X 
    2            0.25               3               0             0.4 # X N_3 C_3 X 
    3        0.111111               3               0             0.4 # X C_3 C_3 X 
    4        0.166667               3               0             0.4 # X N_3 C_3 X 
    5        0.166667               3               0             0.4 # X C_3 C_3 X 
    6        0.333333               3               0             0.4 # X N_3 C_3 X 
    7            0.25               3               0             0.4 # X C_3 C_3 X 
    8        0.333333               3               0             0.4 # X C_3 C_3 X 

Atoms

       1      444        3    -0.47000    0.41952   -1.98854   -0.80326    0    0    0
       2      444        2     0.07000    1.10891   -0.70415   -0.61430    0    0    0
       3      444        2     0.51000    2.61759   -0.80998   -0.98945    0    0    0
       4      444        4    -0.51000    2.79898   -0.41367   -2.31363    0    0    0
       5      444        2    -0.09000    0.92999   -0.19683    0.84396    0    0    0
       6      444        2    -0.18000   -0.56363   -0.17916    1.25711    0    0    0
       7      444        2    -0.27000    1.53452    1.21559    0.99414    0    0    0
       8      444        2    -0.27000   -0.76570    0.08494    2.75331    0    0    0
       9      444        1     0.31000    0.39914   -2.20239   -1.83026    0    0    0
      10      444        1     0.09000    0.63989    0.05110   -1.28622    0    0    0
      11      444        1     0.09000    1.46807   -0.89507    1.52139    0    0    0
      12      444        1     0.09000   -1.02625   -1.16614    1.03541    0    0    0
      13      444        1     0.09000   -1.11898    0.58279    0.66513    0    0    0
      14      444        1     0.09000    2.60299    1.23306    0.69529    0    0    0
      15      444        1     0.09000    0.98189    1.94822    0.36648    0    0    0
      16      444        1     0.09000    1.49314    1.55623    2.04781    0    0    0
      17      444        1     0.09000   -0.13160   -0.59356    3.36313    0    0    0
      18      444        1     0.09000   -0.53385    1.13995    3.00634    0    0    0
      19      444        1     0.09000   -1.82872   -0.09688    3.02217    0    0    0
      20      444        3    -0.47000    3.15703   -2.16592   -0.82618    0    0    0
      21      444        2     0.07000    4.63972   -2.17760   -0.92007    0    0    0
      22      444        2     0.51000    5.08183   -3.13387   -2.06480    0    0    0
      23      444        4    -0.51000    6.47441   -3.21823   -2.13035    0    0    0
      24      444        2    -0.18000    5.29523   -2.63264    0.41843    0    0    0
      25      444        2     0.00000    5.03576   -1.74592    1.65197    0    0    0
      26      444        2    -0.11500    5.08602   -0.24249    1.36228    0    0    0
      27      444        2    -0.11500    3.78045   -2.14140    2.43648    0    0    0
      28      444        2    -0.11500    4.94944    0.55198    2.66046    0    0    0
      29      444        2    -0.11500    3.66612   -1.31228    3.71346    0    0    0
      30      444        2     0.11000    3.66576    0.17491    3.38832    0    0    0
      31      444        4    -0.54000    3.57476    0.90479    4.56973    0    0    0
      32      444        1     0.31000    2.82080   -2.53691    0.08832    0    0    0
      33      444        1     0.09000    5.05152   -1.17613   -1.19100    0    0    0
      34      444        1     0.09000    6.39878   -2.64147    0.28305    0    0    0
      35      444        1     0.09000    5.00744   -3.68375    0.63963    0    0    0
      36      444        1     0.11500    6.05515    0.01259    0.88196    0    0    0
      37      444        1     0.11500    3.83218   -3.21620    2.71353    0    0    0
      38      444        1     0.11500    4.94545    1.64012    2.44233    0    0    0
      39      444        1     0.11500    2.73236   -1.57437    4.25264    0    0    0
      40      444        1     0.43000    2.66760    1.30100    4.54986    0    0    0
      41      444        3    -0.47000    4.57129   -2.72022   -3.37416    0    0    0
      42      444        2     0.07000    4.87069   -3.71496   -4.42866    0    0    0
      43      444        2     0.51000    4.43166   -3.17114   -5.80278    0    0    0
      44      444        4    -0.51000    3.03714   -3.08951   -5.88024    0    0    0
      45      444        2    -0.18000    4.20909   -5.08891   -4.14065    0    0    0
      46      444        2     0.55000    5.04681   -5.93123   -3.18939    0    0    0
      47      444        3    -0.62000    6.19223   -6.47767   -3.88064    0    0    0
      48      444        4    -0.55000    4.28490   -6.98083   -2.69633    0    0    0
      49      444        1     0.31000    3.53274   -2.60659   -3.29936    0    0    0
      50      444        1     0.09000    5.97451   -3.83960   -4.51781    0    0    0
      51      444        1     0.09000    4.06521   -5.66435   -5.08024    0    0    0
      52      444        1     0.09000    3.20162   -4.93939   -3.69795    0    0    0
      53      444        1     0.31000    5.84744   -7.30499   -4.41686    0    0    0
      54      444        1     0.31000    6.78847   -6.87514   -3.12356    0    0    0


Bonds

       1        3        1        2 
       2        4        1        9 
       3        5        2        3 
       4        5        2        5 
       5        6        2       10 
       6        1        3        4 
       7        3        3       20 
       8        5        5        6 
       9        5        5        7 
      10        6        5       11 
      11        5        6        8 
      12        6        6       12 
      13        6        6       13 
      14        6        7       14 
      15        6        7       15 
      16        6        7       16 
      17        6        8       17 
      18        6        8       18 
      19        6        8       19 
      20        3       20       21 
      21        4       20       32 
      22        5       21       22 
      23        5       21       24 
      24        6       21       33 
      25        1       22       23 
      26        3       22       41 
      27        5       24       25 
      28        6       24       34 
      29        6       24       35 
      30        5       25       26 
      31        5       25       27 
      32        5       26       28 
      33        6       26       36 
      34        5       27       29 
      35        6       27       37 
      36        5       28       30 
      37        6       28       38 
      38        5       29       30 
      39        6       29       39 
      40        1       30       31 
      41        2       31       40 
      42        3       41       42 
      43        4       41       49 
      44        5       42       43 
      45        5       42       45 
      46        6       42       50 
      47        1       43       44 
      48        5       45       46 
      49        6       45       51 
      50        6       45       52 
      51        3       46       47 
      52        1       46       48 
      53        4       47       53 
      54        4       47       54 

Angles

       1        3        1        2       10 
       2        3        2        3       20 
       3        3        2        5       11 
       4        3        3        2        1 
       5        3        3        2       10 
       6        2        3       20       21 
       7        3        4        3        2 
       8        3        4        3       20 
       9        3        5        2        1 
      10        3        5        2        3 
      11        3        5        2       10 
      12        3        5        6       12 
      13        3        5        6       13 
      14        3        5        7       14 
      15        3        5        7       15 
      16        3        5        7       16 
      17        3        6        5        2 
      18        3        6        5       11 
      19        3        6        8       17 
      20        3        6        8       18 
      21        3        6        8       19 
      22        3        7        5        2 
      23        3        7        5        6 
      24        3        7        5       11 
      25        3        8        6        5 
      26        3        8        6       12 
      27        3        8        6       13 
      28        2        9        1        2 
      29        3       13        6       12 
      30        3       15        7       14 
      31        3       16        7       14 
      32        3       16        7       15 
      33        3       18        8       17 
      34        3       19        8       17 
      35        3       19        8       18 
      36        3       22       21       20 
      37        3       23       22       21 
      38        3       24       21       20 
      39        3       24       21       22 
      40        3       25       24       21 
      41        3       26       25       24 
      42        3       27       25       24 
      43        3       27       25       26 
      44        3       28       26       25 
      45        3       29       27       25 
      46        3       29       30       28 
      47        3       30       28       26 
      48        3       30       29       27 
      49        3       31       30       28 
      50        3       31       30       29 
      51        2       32       20        3 
      52        2       32       20       21 
      53        3       33       21       20 
      54        3       33       21       22 
      55        3       33       21       24 
      56        3       34       24       21 
      57        3       34       24       25 
      58        3       35       24       21 
      59        3       35       24       25 
      60        3       35       24       34 
      61        3       36       26       25 
      62        3       36       26       28 
      63        3       37       27       25 
      64        3       37       27       29 
      65        3       38       28       26 
      66        3       38       28       30 
      67        3       39       29       27 
      68        3       39       29       30 
      69        1       40       31       30 
      70        3       41       22       21 
      71        3       41       22       23 
      72        2       42       41       22 
      73        3       43       42       41 
      74        3       44       43       42 
      75        3       45       42       41 
      76        3       45       42       43 
      77        3       46       45       42 
      78        3       47       46       45 
      79        3       48       46       45 
      80        3       48       46       47 
      81        2       49       41       22 
      82        2       49       41       42 
      83        3       50       42       41 
      84        3       50       42       43 
      85        3       50       42       45 
      86        3       51       45       42 
      87        3       51       45       46 
      88        3       52       45       42 
      89        3       52       45       46 
      90        3       52       45       51 
      91        2       53       47       46 
      92        2       54       47       46 
      93        2       54       47       53 

Dihedrals

       1        3        1        2        5       11 
       2        2        2        3       20       21 
       3        3        2        5        6       12 
       4        3        2        5        6       13 
       5        3        2        5        7       14 
       6        3        2        5        7       15 
       7        3        2        5        7       16 
       8        3        3        2        5       11 
       9        4        3       20       21       22 
      10        4        3       20       21       24 
      11        5        4        3        2        1 
      12        5        4        3        2       10 
      13        2        4        3       20       21 
      14        2        4        3       20       32 
      15        5        5        2        3        4 
      16        5        5        2        3       20 
      17        3        5        6        8       17 
      18        3        5        6        8       18 
      19        3        5        6        8       19 
      20        3        6        5        2        1 
      21        3        6        5        2        3 
      22        3        6        5        2       10 
      23        3        6        5        7       14 
      24        3        6        5        7       15 
      25        3        6        5        7       16 
      26        3        7        5        2        1 
      27        3        7        5        2        3 
      28        3        7        5        2       10 
      29        3        7        5        6       12 
      30        3        7        5        6       13 
      31        3        8        6        5        2 
      32        3        8        6        5        7 
      33        3        8        6        5       11 
      34        6        9        1        2        3 
      35        6        9        1        2        5 
      36        6        9        1        2       10 
      37        3       11        5        2       10 
      38        3       12        6        5       11 
      39        3       13        6        5       11 
      40        3       14        7        5       11 
      41        3       15        7        5       11 
      42        3       16        7        5       11 
      43        3       17        8        6       12 
      44        3       17        8        6       13 
      45        3       18        8        6       12 
      46        3       18        8        6       13 
      47        3       19        8        6       12 
      48        3       19        8        6       13 
      49        5       20        3        2        1 
      50        5       20        3        2       10 
      51        5       23       22       21       20 
      52        5       24       21       22       23 
      53        3       25       24       21       20 
      54        3       25       24       21       22 
      55        5       26       25       24       21 
      56        5       27       25       24       21 
      57        7       28       26       25       24 
      58        7       28       26       25       27 
      59        7       28       30       29       27 
      60        7       29       27       25       24 
      61        7       29       27       25       26 
      62        7       29       30       28       26 
      63        7       30       28       26       25 
      64        7       30       29       27       25 
      65        7       31       30       28       26 
      66        7       31       30       29       27 
      67        2       32       20        3        2 
      68        4       32       20       21       22 
      69        4       32       20       21       24 
      70        4       33       21       20        3 
      71        4       33       21       20       32 
      72        5       33       21       22       23 
      73        3       33       21       24       25 
      74        3       34       24       21       20 
      75        3       34       24       21       22 
      76        3       34       24       21       33 
      77        5       34       24       25       26 
      78        5       34       24       25       27 
      79        3       35       24       21       20 
      80        3       35       24       21       22 
      81        3       35       24       21       33 
      82        5       35       24       25       26 
      83        5       35       24       25       27 
      84        7       36       26       25       24 
      85        7       36       26       25       27 
      86        7       36       26       28       30 
      87        7       37       27       25       24 
      88        7       37       27       25       26 
      89        7       37       27       29       30 
      90        7       38       28       26       25 
      91        7       38       28       26       36 
      92        7       38       28       30       29 
      93        7       38       28       30       31 
      94        7       39       29       27       25 
      95        7       39       29       27       37 
      96        7       39       29       30       28 
      97        7       39       29       30       31 
      98        1       40       31       30       28 
      99        1       40       31       30       29 
     100        5       41       22       21       20 
     101        5       41       22       21       24 
     102        5       41       22       21       33 
     103        2       42       41       22       21 
     104        2       42       41       22       23 
     105        4       43       42       41       22 
     106        8       44       43       42       41 
     107        4       45       42       41       22 
     108        8       45       42       43       44 
     109        3       46       45       42       41 
     110        3       46       45       42       43 
     111        5       47       46       45       42 
     112        5       48       46       45       42 
     113        2       49       41       22       21 
     114        2       49       41       22       23 
     115        4       49       41       42       43 
     116        4       49       41       42       45 
     117        4       50       42       41       22 
     118        4       50       42       41       49 
     119        8       50       42       43       44 
     120        3       50       42       45       46 
     121        3       51       45       42       41 
     122        3       51       45       42       43 
     123        3       51       45       42       50 
     124        5       51       45       46       47 
     125        5       51       45       46       48 
     126        3       52       45       42       41 
     127        3       52       45       42       43 
     128        3       52       45       42       50 
     129        5       52       45       46       47 
     130        5       52       45       46       48 
     131        2       53       47       46       45 
     132        2       53       47       46       48 
     133        2       54       47       46       45 
     134        2       54       47       46       48 

