54
Atoms. Timestep: 0
N 0.41952 -1.98854 -0.80326
C 1.10891 -0.70415 -0.6143
C 2.61759 -0.80998 -0.98945
O 2.79898 -0.41367 -2.31363
C 0.92999 -0.19683 0.84396
C -0.56363 -0.17916 1.25711
C 1.53452 1.21559 0.99414
C -0.7657 0.08494 2.75331
H 0.39914 -2.20239 -1.83026
H 0.63989 0.0511 -1.28622
H 1.46807 -0.89507 1.52139
H -1.02625 -1.16614 1.03541
H -1.11898 0.58279 0.66513
H 2.60299 1.23306 0.69529
H 0.98189 1.94822 0.36648
H 1.49314 1.55623 2.04781
H -0.1316 -0.59356 3.36313
H -0.53385 1.13995 3.00634
H -1.82872 -0.09688 3.02217
N 3.15703 -2.16592 -0.82618
C 4.63972 -2.1776 -0.92007
C 5.08183 -3.13387 -2.0648
O 6.47441 -3.21823 -2.13035
C 5.29523 -2.63264 0.41843
C 5.03576 -1.74592 1.65197
C 5.08602 -0.24249 1.36228
C 3.78045 -2.1414 2.43648
C 4.94944 0.55198 2.66046
C 3.66612 -1.31228 3.71346
C 3.66576 0.17491 3.38832
O 3.57476 0.90479 4.56973
H 2.8208 -2.53691 0.08832
H 5.05152 -1.17613 -1.191
H 6.39878 -2.64147 0.28305
H 5.00744 -3.68375 0.63963
H 6.05515 0.01259 0.88196
H 3.83218 -3.2162 2.71353
H 4.94545 1.64012 2.44233
H 2.73236 -1.57437 4.25264
H 2.6676 1.301 4.54986
N 4.57129 -2.72022 -3.37416
C 4.87069 -3.71496 -4.42866
C 4.43166 -3.17114 -5.80278
O 3.03714 -3.08951 -5.88024
C 4.20909 -5.08891 -4.14065
C 5.04681 -5.93123 -3.18939
N 6.19223 -6.47767 -3.88064
O 4.2849 -6.98083 -2.69633
H 3.53274 -2.60659 -3.29936
H 5.97451 -3.8396 -4.51781
H 4.06521 -5.66435 -5.08024
H 3.20162 -4.93939 -3.69795
H 5.84744 -7.30499 -4.41686
H 6.78847 -6.87514 -3.12356
54
Atoms. Timestep: 32
N 0.25631 -1.99202 -0.833713
C 1.02527 -0.719156 -0.629583
C 2.56139 -0.840504 -0.970708
O 2.84021 -0.444804 -2.30553
C 0.840388 -0.174036 0.838064
C -0.666279 -0.101663 1.27776
C 1.53799 1.22053 0.999846
C -0.910484 0.167297 2.79247
H 0.165826 -2.20891 -1.83733
H 0.596966 0.0468287 -1.2928
H 1.33057 -0.89018 1.50844
H -1.15458 -1.05857 1.05703
H -1.18407 0.664739 0.690756
H 2.58683 1.17187 0.690176
H 1.03109 1.98659 0.403186
H 1.52355 1.55194 2.0371
H -0.3729 -0.57315 3.39285
H -0.559999 1.16207 3.07065
H -1.97892 0.101027 3.02883
N 3.2316 -2.1487 -0.755501
C 4.74121 -2.18707 -0.885149
C 5.15797 -3.15577 -2.06199
O 6.56585 -3.27967 -2.23384
C 5.46367 -2.57102 0.456219
C 5.17862 -1.71051 1.71882
C 5.35076 -0.172481 1.53087
C 3.89828 -2.12932 2.49712
C 5.08249 0.610462 2.84666
C 3.62414 -1.25603 3.74555
C 3.68981 0.249691 3.39983
O 3.34602 1.06847 4.50135
H 2.87751 -2.5585 0.107502
H 5.13537 -1.20929 -1.19522
H 6.54452 -2.50381 0.295782
H 5.25711 -3.61924 0.689103
H 6.35901 0.0542136 1.17686
H 3.97928 -3.17558 2.80322
H 5.15336 1.69265 2.70236
H 2.64622 -1.50871 4.1544
H 2.3678 1.07069 4.48404
N 4.60022 -2.81557 -3.3922
C 4.79141 -3.7915 -4.51723
C 4.31923 -3.19976 -5.89066
O 2.89872 -3.13973 -6.03242
C 4.15722 -5.18788 -4.18239
C 5.03142 -6.07661 -3.28016
N 6.26787 -6.47834 -3.94294
O 4.36635 -7.28809 -2.97227
H 3.59722 -2.63805 -3.26586
H 5.86852 -3.9107 -4.6884
H 3.95934 -5.74848 -5.09631
H 3.19688 -5.05249 -3.68007
H 6.03975 -7.20381 -4.62775
H 6.7836 -6.95216 -3.20086
54
Atoms. Timestep: 0
N 0.25631 -1.99202 -0.833713
C 1.02527 -0.719156 -0.629583
C 2.56139 -0.840504 -0.970708
O 2.84021 -0.444804 -2.30553
C 0.840388 -0.174036 0.838064
C -0.666279 -0.101663 1.27776
C 1.53799 1.22053 0.999846
C -0.910484 0.167297 2.79247
H 0.165826 -2.20891 -1.83733
H 0.596966 0.0468287 -1.2928
H 1.33057 -0.89018 1.50844
H -1.15458 -1.05857 1.05703
H -1.18407 0.664739 0.690756
H 2.58683 1.17187 0.690176
H 1.03109 1.98659 0.403186
H 1.52355 1.55194 2.0371
H -0.3729 -0.57315 3.39285
H -0.559999 1.16207 3.07065
H -1.97892 0.101027 3.02883
N 3.2316 -2.1487 -0.755501
C 4.74121 -2.18707 -0.885149
C 5.15797 -3.15577 -2.06199
O 6.56585 -3.27967 -2.23384
C 5.46367 -2.57102 0.456219
C 5.17862 -1.71051 1.71882
C 5.35076 -0.172481 1.53087
C 3.89828 -2.12932 2.49712
C 5.08249 0.610462 2.84666
C 3.62414 -1.25603 3.74555
C 3.68981 0.249691 3.39983
O 3.34602 1.06847 4.50135
H 2.87751 -2.5585 0.107502
H 5.13537 -1.20929 -1.19522
H 6.54452 -2.50381 0.295782
H 5.25711 -3.61924 0.689103
H 6.35901 0.0542136 1.17686
H 3.97928 -3.17558 2.80322
H 5.15336 1.69265 2.70236
H 2.64622 -1.50871 4.1544
H 2.3678 1.07069 4.48404
N 4.60022 -2.81557 -3.3922
C 4.79141 -3.7915 -4.51723
C 4.31923 -3.19976 -5.89066
O 2.89872 -3.13973 -6.03242
C 4.15722 -5.18788 -4.18239
C 5.03142 -6.07661 -3.28016
N 6.26787 -6.47834 -3.94294
O 4.36635 -7.28809 -2.97227
H 3.59722 -2.63805 -3.26586
H 5.86852 -3.9107 -4.6884
H 3.95934 -5.74848 -5.09631
H 3.19688 -5.05249 -3.68007
H 6.03975 -7.20381 -4.62775
H 6.7836 -6.95216 -3.20086
54
Atoms. Timestep: 100
N 0.30622 -2.02719 -0.789962
C 1.04767 -0.734325 -0.610239
C 2.58529 -0.829568 -0.954133
O 2.83312 -0.472978 -2.30915
C 0.81627 -0.173056 0.844303
C -0.710157 -0.0468229 1.19434
C 1.53093 1.20899 1.03537
C -1.03006 0.200068 2.69751
H 0.275841 -2.30054 -1.7829
H 0.606836 0.00983883 -1.28899
H 1.26003 -0.897474 1.53842
H -1.2234 -0.976451 0.921289
H -1.16262 0.752404 0.596107
H 2.59573 1.13676 0.795012
H 1.08092 1.98085 0.401719
H 1.45677 1.54946 2.0679
H -0.553967 -0.57057 3.31121
H -0.663246 1.17713 3.01603
H -2.11176 0.168927 2.86912
N 3.26454 -2.13221 -0.726194
C 4.77303 -2.17714 -0.881883
C 5.1771 -3.14848 -2.06102
O 6.58303 -3.2478 -2.2584
C 5.50886 -2.56267 0.452718
C 5.21618 -1.71187 1.71929
C 5.37576 -0.173678 1.53258
C 3.92646 -2.13905 2.47847
C 5.07829 0.607137 2.84311
C 3.61197 -1.2719 3.71921
C 3.68842 0.235359 3.3918
O 3.37938 1.02604 4.52348
H 2.91729 -2.53133 0.14321
H 5.16514 -1.19974 -1.19547
H 6.58926 -2.493 0.290029
H 5.30442 -3.6119 0.683176
H 6.39158 0.0592227 1.20509
H 4.00163 -3.1867 2.78133
H 5.13259 1.69031 2.69739
H 2.61582 -1.52204 4.08341
H 2.40219 1.00602 4.5564
N 4.58451 -2.82207 -3.38028
C 4.77113 -3.79184 -4.51208
C 4.27319 -3.18558 -5.86999
O 2.85165 -3.12056 -6.00013
C 4.15617 -5.19536 -4.17878
C 5.04687 -6.07025 -3.27912
N 6.24537 -6.51254 -3.98418
O 4.37405 -7.26076 -2.92453
H 3.58063 -2.66582 -3.23506
H 5.84565 -3.90595 -4.70256
H 3.95893 -5.75927 -5.09126
H 3.19635 -5.06932 -3.67361
H 5.97835 -7.26018 -4.63123
H 6.79456 -6.96595 -3.2538
54
Atoms. Timestep: 200
N 0.347523 -2.07614 -0.817318
C 1.04561 -0.758988 -0.643543
C 2.60201 -0.822451 -0.906829
O 2.93303 -0.369559 -2.21169
C 0.725838 -0.174557 0.785442
C -0.81996 0.00768012 1.00737
C 1.49012 1.16849 1.05036
C -1.2719 0.307226 2.46873
H 0.366759 -2.37941 -1.80079
H 0.619342 -0.043624 -1.36002
H 1.07651 -0.920818 1.51016
H -1.33936 -0.910518 0.705961
H -1.18937 0.807157 0.35359
H 2.56341 1.0579 0.873873
H 1.11037 1.97448 0.413619
H 1.369 1.48101 2.08856
H -0.879326 -0.459151 3.14151
H -0.902749 1.28126 2.79478
H -2.36349 0.314361 2.54217
N 3.30293 -2.11836 -0.708279
C 4.81281 -2.1462 -0.88163
C 5.20191 -3.10231 -2.08236
O 6.6025 -3.18034 -2.31915
C 5.57792 -2.54373 0.436322
C 5.30727 -1.71817 1.72953
C 5.45133 -0.1724 1.58629
C 4.05227 -2.18944 2.51813
C 5.11376 0.599584 2.89349
C 3.74329 -1.33727 3.76988
C 3.74024 0.172886 3.44358
O 3.39989 0.951727 4.57723
H 2.98636 -2.48913 0.185124
H 5.19308 -1.1625 -1.18845
H 6.65398 -2.46658 0.252215
H 5.38367 -3.59838 0.651371
H 6.47142 0.0769096 1.28561
H 4.17869 -3.23228 2.82008
H 5.12771 1.6821 2.73769
H 2.77588 -1.63233 4.17575
H 2.43024 0.842233 4.64478
N 4.57466 -2.78859 -3.39113
C 4.70859 -3.79489 -4.50305
C 4.1486 -3.25949 -5.86728
O 2.7227 -3.19317 -5.93593
C 4.10785 -5.18926 -4.1026
C 5.05283 -6.06894 -3.266
N 6.22027 -6.48624 -4.03377
O 4.40697 -7.26635 -2.87655
H 3.58023 -2.60374 -3.22203
H 5.77535 -3.9049 -4.73463
H 3.83463 -5.76683 -4.98703
H 3.19027 -5.05081 -3.52903
H 5.92376 -7.23628 -4.66454
H 6.81255 -6.93867 -3.33721
54
Atoms. Timestep: 300
N 0.384964 -1.92868 -1.03406
C 1.08642 -0.650785 -0.682737
C 2.65637 -0.720455 -0.868038
O 3.04674 -0.264094 -2.15462
C 0.647249 -0.182162 0.755433
C -0.909764 0.0112466 0.857118
C 1.38297 1.13422 1.17419
C -1.47043 0.358978 2.26588
H 0.431514 -2.10633 -2.04622
H 0.725973 0.133863 -1.35969
H 0.937521 -0.980411 1.45145
H -1.39771 -0.917929 0.534937
H -1.22902 0.79311 0.155499
H 2.46556 1.03352 1.07333
H 1.051 1.98541 0.570561
H 1.18232 1.36591 2.21961
H -1.09284 -0.348418 3.00595
H -1.1762 1.36656 2.56146
H -2.56198 0.318317 2.26533
N 3.32275 -2.03328 -0.64528
C 4.82658 -2.11666 -0.863159
C 5.17045 -3.06354 -2.07987
O 6.56081 -3.09966 -2.37109
C 5.62105 -2.5538 0.423055
C 5.393 -1.73531 1.72506
C 5.39425 -0.188144 1.52977
C 4.22883 -2.29245 2.59695
C 5.0892 0.575585 2.84665
C 3.9115 -1.43685 3.84628
C 3.78387 0.0640818 3.49335
O 3.4906 0.845063 4.63875
H 3.03283 -2.33795 0.282768
H 5.22955 -1.14201 -1.16797
H 6.69177 -2.47003 0.214086
H 5.43484 -3.61324 0.622598
H 6.35527 0.14423 1.12953
H 4.45157 -3.31768 2.90288
H 5.03072 1.65764 2.69416
H 2.99779 -1.7951 4.32115
H 2.54394 0.667903 4.80711
N 4.48665 -2.78669 -3.36727
C 4.63041 -3.81022 -4.4627
C 4.06031 -3.29402 -5.82559
O 2.64053 -3.41355 -5.92847
C 4.07519 -5.2097 -4.02272
C 5.09899 -6.04911 -3.244
N 6.20163 -6.47756 -4.09812
O 4.50421 -7.24482 -2.7786
H 3.49448 -2.63499 -3.15863
H 5.69579 -3.89882 -4.70904
H 3.75725 -5.79812 -4.88478
H 3.19588 -5.08768 -3.38897
H 5.86705 -7.24944 -4.68251
H 6.85655 -6.89988 -3.43991
54
Atoms. Timestep: 400
N 0.36279 -1.60905 -1.41317
C 1.1119 -0.447614 -0.833033
C 2.68033 -0.572498 -1.00772
O 3.07774 -0.233497 -2.33321
C 0.651755 -0.19671 0.659369
C -0.889256 0.079674 0.784715
C 1.46725 0.963308 1.31626
C -1.4716 0.0949753 2.23383
H 0.437215 -1.62 -2.43934
H 0.821556 0.449969 -1.38738
H 0.858058 -1.12075 1.2147
H -1.43577 -0.692544 0.226381
H -1.12953 1.0338 0.301008
H 2.53862 0.778525 1.22677
H 1.2382 1.92387 0.845746
H 1.2408 1.04639 2.37858
H -1.16462 -0.817166 2.74871
H -1.11622 0.957709 2.79504
H -2.56374 0.137543 2.20716
N 3.31544 -1.87354 -0.64549
C 4.8111 -2.02514 -0.894012
C 5.08597 -3.05959 -2.05209
O 6.47473 -3.19519 -2.34317
C 5.62924 -2.44702 0.388267
C 5.40563 -1.6675 1.71381
C 5.31089 -0.116465 1.57115
C 4.32527 -2.30494 2.63878
C 5.05797 0.602369 2.9258
C 4.11017 -1.51045 3.94939
C 3.84187 -0.0222828 3.63532
O 3.47183 0.7235 4.78173
H 3.06125 -2.03431 0.329281
H 5.24517 -1.08375 -1.25388
H 6.69707 -2.34781 0.168975
H 5.4647 -3.51103 0.579513
H 6.22943 0.274715 1.12735
H 4.59814 -3.33516 2.87956
H 4.89136 1.67392 2.78625
H 3.27696 -1.9307 4.51249
H 2.52427 0.511009 4.89779
N 4.37308 -2.82475 -3.32963
C 4.55034 -3.84355 -4.41529
C 3.94562 -3.37997 -5.7836
O 2.52897 -3.5241 -5.87139
C 4.07442 -5.27054 -3.95566
C 5.15052 -6.07302 -3.20237
N 6.2269 -6.47185 -4.10025
O 4.63171 -7.28708 -2.68983
H 3.3779 -2.72644 -3.10242
H 5.61418 -3.8845 -4.67834
H 3.75369 -5.8696 -4.80787
H 3.20903 -5.18698 -3.29733
H 5.88292 -7.23081 -4.69554
H 6.91563 -6.90215 -3.48236
54
Atoms. Timestep: 500
N 0.291789 -1.26382 -1.61466
C 1.13242 -0.250478 -0.90386
C 2.6889 -0.466725 -1.10141
O 3.04696 -0.288817 -2.47288
C 0.677908 -0.132763 0.608003
C -0.858257 0.105019 0.81197
C 1.50709 0.96759 1.34035
C -1.44845 -0.167909 2.23344
H 0.501798 -1.28939 -2.62201
H 0.930561 0.716539 -1.37219
H 0.898122 -1.09949 1.07628
H -1.4209 -0.533137 0.120167
H -1.10288 1.13442 0.526818
H 2.57349 0.761711 1.25748
H 1.31317 1.95846 0.924786
H 1.26179 1.00055 2.4019
H -1.33183 -1.22833 2.47013
H -0.938679 0.4176 2.99604
H -2.51334 0.0865211 2.25951
N 3.31187 -1.72915 -0.604718
C 4.79174 -1.94509 -0.899703
C 5.003 -3.04596 -2.01718
O 6.37594 -3.3193 -2.28192
C 5.67492 -2.31919 0.360922
C 5.45474 -1.60815 1.71871
C 5.31276 -0.0667832 1.60516
C 4.37743 -2.29642 2.60354
C 4.99825 0.604161 2.96819
C 4.14842 -1.56971 3.94539
C 3.82496 -0.0877646 3.69158
O 3.50557 0.579276 4.89761
H 3.11796 -1.73845 0.395142
H 5.22882 -1.03508 -1.32743
H 6.72205 -2.11925 0.111282
H 5.62418 -3.39715 0.53381
H 6.2331 0.36579 1.20433
H 4.67722 -3.32628 2.80826
H 4.77783 1.66815 2.85095
H 3.3153 -2.03577 4.47237
H 2.55388 0.387459 5.01196
N 4.28985 -2.87043 -3.30242
C 4.5165 -3.89165 -4.3903
C 3.86968 -3.47485 -5.75537
O 2.45347 -3.65414 -5.82665
C 4.11834 -5.3358 -3.92871
C 5.20776 -6.10267 -3.16234
N 6.33759 -6.43016 -4.02624
O 4.67306 -7.35623 -2.77203
H 3.29471 -2.81489 -3.06067
H 5.58062 -3.87989 -4.6546
H 3.83886 -5.94437 -4.78823
H 3.23788 -5.29219 -3.28476
H 6.04192 -7.16813 -4.672
H 6.99645 -6.88319 -3.39269
54
Atoms. Timestep: 600
N 0.37431 -1.6343 -1.27647
C 1.12177 -0.438427 -0.768815
C 2.68703 -0.541182 -0.940891
O 3.06671 -0.16916 -2.26951
C 0.669999 -0.119737 0.704964
C -0.869901 0.158359 0.779045
C 1.47439 1.06469 1.33123
C -1.47054 0.287944 2.20371
H 0.441863 -1.69532 -2.30207
H 0.81862 0.429686 -1.37397
H 0.873173 -1.01876 1.30197
H -1.41463 -0.644358 0.269454
H -1.0961 1.07327 0.21914
H 2.54273 0.866453 1.28775
H 1.27766 2.00295 0.81077
H 1.20837 1.20419 2.38016
H -1.19384 -0.581106 2.80884
H -1.11622 1.19272 2.70688
H -2.56361 0.3485 2.15814
N 3.31274 -1.86281 -0.649442
C 4.79911 -2.01779 -0.92175
C 5.07595 -3.05292 -2.09476
O 6.45886 -3.20772 -2.41503
C 5.62749 -2.41338 0.355456
C 5.39727 -1.6774 1.70217
C 5.28715 -0.125618 1.58714
C 4.30967 -2.34718 2.59695
C 5.02732 0.561595 2.95566
C 4.06831 -1.59213 3.93022
C 3.81931 -0.0926799 3.65558
O 3.45693 0.613615 4.82061
H 3.02804 -2.14104 0.293416
H 5.22053 -1.07486 -1.28606
H 6.68758 -2.27041 0.127944
H 5.51303 -3.48486 0.532355
H 6.19842 0.290001 1.14879
H 4.58494 -3.38272 2.80851
H 4.83858 1.63162 2.8277
H 3.23273 -2.02586 4.48316
H 2.486 0.514543 4.83685
N 4.30722 -2.88197 -3.3581
C 4.50368 -3.87991 -4.467
C 3.87098 -3.40339 -5.82486
O 2.49781 -3.74134 -6.03579
C 4.10775 -5.32465 -4.00922
C 5.22502 -6.01647 -3.20477
N 6.34842 -6.43547 -4.03651
O 4.72666 -7.1994 -2.62418
H 3.31718 -2.82236 -3.09934
H 5.56384 -3.87381 -4.74743
H 3.85978 -5.96374 -4.85685
H 3.21451 -5.28015 -3.38227
H 6.05595 -7.27761 -4.54143
H 7.04327 -6.75457 -3.36096
54
Atoms. Timestep: 700
N 0.368578 -2.22001 -0.555984
C 1.03945 -0.871022 -0.572442
C 2.61227 -0.916837 -0.79134
O 2.99627 -0.22379 -1.97736
C 0.658928 -0.0801467 0.738626
C -0.89975 0.0843858 0.896155
C 1.40728 1.29642 0.845262
C -1.38862 0.804323 2.18869
H 0.198258 -2.54875 -1.51725
H 0.613611 -0.272953 -1.3995
H 1.00729 -0.704208 1.57042
H -1.36672 -0.90649 0.872056
H -1.30417 0.622804 0.0319672
H 2.48097 1.18725 0.67275
H 1.01737 2.029 0.133715
H 1.27773 1.71826 1.84155
H -0.874389 0.411965 3.07504
H -1.20358 1.88597 2.12132
H -2.46649 0.661021 2.32137
N 3.36992 -2.20253 -0.724675
C 4.88529 -2.17976 -0.896379
C 5.37242 -3.00938 -2.14782
O 6.76844 -2.87035 -2.41671
C 5.60295 -2.68355 0.4013
C 5.3386 -1.8695 1.69716
C 5.42282 -0.320443 1.5232
C 4.1399 -2.3918 2.54958
C 5.04259 0.458467 2.81116
C 3.76088 -1.49085 3.7547
C 3.67599 0.00164409 3.35857
O 3.3984 0.809833 4.49102
H 3.02982 -2.72259 0.0907182
H 5.23866 -1.16586 -1.11036
H 6.68589 -2.65623 0.258703
H 5.3446 -3.7324 0.567632
H 6.41536 -0.0160562 1.17898
H 4.33787 -3.41003 2.8934
H 5.07451 1.54597 2.68389
H 2.80592 -1.81088 4.17656
H 2.42437 0.855068 4.54789
N 4.66399 -2.6893 -3.41646
C 4.6309 -3.76246 -4.47225
C 3.88854 -3.32661 -5.79048
O 2.45871 -3.3684 -5.73682
C 4.09794 -5.12982 -3.91288
C 5.15978 -5.99472 -3.21021
N 6.23548 -6.35698 -4.12696
O 4.58901 -7.21976 -2.78929
H 3.69918 -2.41602 -3.20339
H 5.66236 -3.87979 -4.82467
H 3.68021 -5.74658 -4.71365
H 3.29098 -4.95686 -3.2
H 5.87311 -7.07558 -4.76066
H 6.89506 -6.83903 -3.51597
54
Atoms. Timestep: 800
N 0.672382 -2.52289 0.840827
C 1.06667 -1.32636 0.00814575
C 2.53928 -1.31587 -0.53761
O 2.64348 -0.590474 -1.75028
C 0.797675 -0.00172263 0.843229
C -0.699615 0.13761 1.25431
C 1.23612 1.32685 0.146249
C -0.887833 1.02185 2.51913
H 0.237518 -3.2584 0.265793
H 0.407846 -1.27266 -0.875128
H 1.36868 -0.0996373 1.75781
H -1.11984 -0.841096 1.51562
H -1.30769 0.514544 0.427399
H 2.30437 1.30834 -0.0942982
H 0.689455 1.45352 -0.794772
H 1.06364 2.20368 0.769872
H -0.216144 0.678456 3.31583
H -0.678435 2.07384 2.29992
H -1.91915 0.947825 2.88722
N 3.29674 -2.56187 -0.792586
C 4.80458 -2.34537 -0.880608
C 5.36702 -3.07295 -2.16804
O 6.74009 -2.81882 -2.40477
C 5.53363 -2.71163 0.474042
C 5.12734 -1.88751 1.73854
C 5.60372 -0.403853 1.71699
C 3.6706 -2.10234 2.22398
C 5.10694 0.434642 2.933
C 3.26162 -1.16236 3.37485
C 3.58146 0.308841 3.05087
O 3.05879 1.06567 4.11633
H 3.04527 -3.21358 -0.048942
H 5.04604 -1.29494 -1.09047
H 6.61376 -2.60175 0.347923
H 5.3609 -3.76846 0.685671
H 6.69659 -0.395907 1.7144
H 3.5336 -3.14084 2.53375
H 5.36868 1.49125 2.82882
H 2.2129 -1.3008 3.65224
H 2.16257 1.327 3.83142
N 4.72608 -2.71336 -3.46603
C 4.88554 -3.69336 -4.58956
C 4.43994 -3.07793 -5.95951
O 3.02522 -2.95287 -6.02986
C 4.1969 -5.05435 -4.21727
C 5.11949 -5.9965 -3.42627
N 6.07142 -6.58791 -4.35221
O 4.39396 -7.09026 -2.91143
H 3.73168 -2.49607 -3.31546
H 5.95663 -3.85103 -4.76761
H 3.8501 -5.57296 -5.11675
H 3.30925 -4.86654 -3.60866
H 5.58788 -7.27346 -4.93965
H 6.67814 -7.13114 -3.73898
54
Atoms. Timestep: 900
N 1.08769 -2.40936 1.39041
C 0.837606 -1.38267 0.298468
C 2.22299 -1.36219 -0.493967
O 2.00848 -1.20544 -1.88423
C 0.419123 0.0856622 0.819938
C -0.834124 0.0643968 1.77858
C 0.21133 1.12149 -0.360398
C -1.02679 1.24263 2.8169
H 0.157622 -2.75473 1.69069
H 0.0700434 -1.75659 -0.397382
H 1.26873 0.43621 1.42066
H -0.807241 -0.833569 2.40096
H -1.7464 -0.00737722 1.17934
H 1.07854 1.17224 -1.03359
H -0.66309 0.819468 -0.94706
H 0.0143091 2.13014 0.0287965
H -0.200441 1.23724 3.52802
H -1.02942 2.20255 2.30195
H -1.97409 1.15292 3.37296
N 3.08393 -2.58223 -0.602442
C 4.57689 -2.48943 -0.747343
C 5.12463 -3.31978 -2.01367
O 6.53385 -3.47422 -2.01671
C 5.28913 -2.8169 0.632496
C 5.17365 -1.79106 1.80056
C 5.52456 -0.31965 1.42335
C 4.03964 -2.05043 2.8545
C 5.28276 0.667702 2.58624
C 3.78101 -0.89249 3.84822
C 3.85076 0.451009 3.11256
O 3.41621 1.46784 3.98027
H 2.76905 -3.34704 -0.00974522
H 4.85229 -1.45905 -1.00152
H 6.36092 -2.87639 0.433837
H 4.99756 -3.80818 0.984281
H 6.56312 -0.247682 1.09109
H 4.37748 -2.88812 3.47536
H 5.41546 1.71203 2.28906
H 2.80671 -1.01187 4.33742
H 2.45081 1.50391 3.84197
N 4.92807 -2.81457 -3.43059
C 5.32236 -3.60873 -4.67948
C 5.34016 -2.89569 -6.09903
O 4.01373 -2.66589 -6.60369
C 4.45269 -4.90601 -4.7697
C 4.93464 -6.00304 -3.8132
N 6.05752 -6.74218 -4.3685
O 3.9101 -6.94581 -3.57595
H 3.94416 -2.5218 -3.4799
H 6.37585 -3.89418 -4.56777
H 4.44989 -5.32291 -5.78057
H 3.41273 -4.66739 -4.52362
H 5.67727 -7.27997 -5.14231
H 6.32236 -7.42758 -3.65862
54
Atoms. Timestep: 1000
N 0.540842 -2.74309 1.56653
C 0.47456 -1.78147 0.400699
C 1.89119 -1.77592 -0.362047
O 1.75908 -1.23529 -1.67445
C 0.103605 -0.256754 0.748287
C -0.641539 -0.09654 2.14046
C -0.705332 0.43903 -0.44001
C -1.43554 1.22303 2.39835
H -0.334582 -2.71777 2.13611
H -0.274403 -2.17914 -0.275682
H 1.0484 0.297186 0.84158
H 0.0723707 -0.220959 2.96538
H -1.37568 -0.889578 2.22887
H -0.143047 0.382316 -1.38037
H -1.6779 -0.0506825 -0.583941
H -0.868644 1.51307 -0.248584
H -0.726505 2.04311 2.39971
H -2.19438 1.39233 1.63898
H -1.93563 1.19308 3.3671
N 2.76059 -2.95984 -0.52843
C 4.21908 -2.60199 -0.859807
C 4.75633 -3.48475 -2.05548
O 5.59778 -4.52331 -1.58119
C 5.12838 -2.6407 0.432361
C 5.18349 -1.38235 1.35608
C 4.82793 0.0783007 0.896074
C 4.84404 -1.73557 2.84312
C 5.06756 1.1259 2.04618
C 5.15724 -0.573135 3.81499
C 4.40122 0.695952 3.37307
O 4.64932 1.70401 4.33823
H 2.68344 -3.42731 0.37937
H 4.31084 -1.57803 -1.25312
H 6.16909 -2.82102 0.154236
H 4.85879 -3.53197 1.00664
H 5.34586 0.369673 -0.0216787
H 5.33965 -2.6515 3.18664
H 4.6313 2.0811 1.7434
H 4.87994 -0.842102 4.83955
H 3.93066 1.56962 4.97461
N 5.23822 -2.77608 -3.27879
C 5.67427 -3.59295 -4.48152
C 6.38054 -2.76425 -5.64088
O 5.75766 -2.10222 -6.76518
C 4.61885 -4.65674 -4.95791
C 4.28429 -5.80159 -3.98916
N 5.44713 -6.47801 -3.43296
O 3.53924 -6.77315 -4.64261
H 4.43711 -2.20376 -3.57822
H 6.55788 -4.15209 -4.14937
H 4.95682 -5.11756 -5.88718
H 3.67983 -4.1339 -5.16328
H 5.69952 -7.24911 -4.05883
H 5.07639 -6.86429 -2.56898
54
Atoms. Timestep: 1100
N 0.618551 -2.48862 2.04665
C 0.371006 -1.84239 0.752378
C 1.67308 -1.5148 -0.0766479
O 1.37765 -1.21126 -1.47296
C -0.48435 -0.530449 0.89668
C -1.37084 -0.375801 2.19219
C -1.34367 -0.414201 -0.373936
C -1.6932 1.10145 2.60853
H -0.101172 -3.19263 2.3258
H -0.141223 -2.57398 0.158791
H 0.208923 0.323426 0.823502
H -0.721883 -0.760176 2.97341
H -2.25871 -1.02847 2.15187
H -0.763366 -0.239065 -1.28846
H -1.91963 -1.33935 -0.520978
H -2.05725 0.416715 -0.319516
H -0.785519 1.70613 2.54273
H -2.48437 1.49722 1.96339
H -2.02499 1.09478 3.64635
N 2.6483 -2.58245 -0.220746
C 3.92475 -2.29352 -0.975873
C 4.27086 -3.51683 -1.8897
O 4.87689 -4.65482 -1.27394
C 5.17994 -1.92794 -0.105824
C 4.8608 -1.12869 1.16701
C 3.94446 0.106495 1.07704
C 5.21066 -1.6556 2.59731
C 4.62722 1.22183 1.87029
C 5.98888 -0.501358 3.22487
C 5.14778 0.807037 3.26829
O 6.12855 1.79568 3.3566
H 2.87237 -2.94569 0.704219
H 3.75307 -1.46271 -1.68088
H 5.88631 -1.33719 -0.697295
H 5.71168 -2.83054 0.203872
H 3.89068 0.449398 0.043051
H 5.90301 -2.50048 2.54051
H 4.16765 2.20841 1.78952
H 6.47294 -0.752463 4.17109
H 6.38826 1.88674 4.29817
N 4.72783 -3.19378 -3.24537
C 5.92368 -3.85573 -3.86959
C 7.02246 -2.78306 -4.18328
O 7.33161 -2.50329 -5.55219
C 5.46782 -4.72491 -5.08057
C 4.3553 -5.69472 -4.68499
N 4.8468 -6.96953 -4.15657
O 3.56067 -5.94572 -5.82458
H 3.87854 -3.1426 -3.83064
H 6.42253 -4.51358 -3.14726
H 6.29326 -5.30291 -5.50257
H 5.08256 -4.06813 -5.86734
H 4.54619 -7.72647 -4.77373
H 4.2818 -7.02492 -3.30988
54
Atoms. Timestep: 1200
N 0.775612 -2.1877 2.36723
C 0.142346 -1.74136 1.0453
C 1.32755 -1.57912 0.0242254
O 0.921917 -1.24844 -1.24997
C -0.893461 -0.493405 1.24352
C -1.94783 -0.681676 2.40346
C -1.71168 -0.0961535 -0.0379011
C -2.98259 0.447527 2.71977
H 0.0611526 -2.55273 3.02223
H -0.42182 -2.55559 0.624897
H -0.274192 0.363441 1.57579
H -1.42727 -0.929006 3.30025
H -2.48871 -1.60347 2.15375
H -1.01884 0.196444 -0.835274
H -2.348 -0.91139 -0.400213
H -2.30379 0.801167 0.116331
H -2.49161 1.4191 2.66135
H -3.8259 0.401084 2.02536
H -3.35055 0.312034 3.73686
N 2.22843 -2.70087 -0.376202
C 3.54289 -2.33469 -1.07715
C 4.02189 -3.41197 -2.17278
O 4.18053 -4.65644 -1.4955
C 4.66756 -1.91852 -0.0360691
C 4.46672 -1.16324 1.3156
C 4.18789 0.379654 1.17322
C 5.7243 -1.41964 2.24259
C 5.37595 1.37977 1.44043
C 6.79382 -0.286343 2.3396
C 6.00183 0.956349 2.79019
O 6.77396 1.9329 3.46191
H 2.39347 -3.29908 0.429083
H 3.37674 -1.4462 -1.70777
H 5.38933 -1.30934 -0.588001
H 5.17015 -2.86133 0.187076
H 3.66517 0.608917 0.242651
H 6.16821 -2.41778 2.1585
H 5.10656 2.43482 1.37283
H 7.4691 -0.539098 3.1554
H 6.1405 2.30676 4.11596
N 5.24078 -3.12753 -3.02771
C 6.15109 -4.2148 -3.62566
C 7.62857 -3.72902 -3.81011
O 7.73427 -2.7825 -4.89713
C 5.7564 -4.70904 -5.0597
C 4.45011 -5.45869 -5.16301
N 4.322 -6.58823 -4.2472
O 4.60198 -5.98651 -6.47015
H 4.9617 -2.47114 -3.76961
H 6.20188 -5.05884 -2.92912
H 6.55016 -5.39495 -5.40978
H 5.69384 -3.87146 -5.75944
H 3.67313 -7.25277 -4.67034
H 3.81892 -6.19805 -3.46721
54
Atoms. Timestep: 1300
N 0.969011 -1.77722 2.25192
C 0.203221 -1.70836 0.957266
C 1.35008 -1.3865 -0.102632
O 0.848666 -1.26166 -1.38313
C -1.07151 -0.746451 1.11897
C -2.25765 -1.36092 1.97126
C -1.70833 -0.231264 -0.222612
C -2.75131 -0.495931 3.1804
H 0.380391 -2.19813 3.006
H -0.135086 -2.70089 0.678998
H -0.736062 0.177815 1.64972
H -2.01546 -2.35957 2.34234
H -3.14884 -1.49006 1.39505
H -0.970568 0.30322 -0.824088
H -2.0618 -1.07891 -0.817255
H -2.52722 0.458481 -0.0170053
H -1.93516 -0.261808 3.862
H -3.22053 0.425219 2.83132
H -3.49482 -1.06216 3.75279
N 2.30319 -2.45812 -0.491958
C 3.6359 -2.1044 -1.11618
C 3.93706 -3.08463 -2.30847
O 3.79895 -4.43015 -1.8822
C 4.84465 -2.00072 -0.116245
C 4.67481 -0.99611 1.08691
C 4.6286 0.517847 0.712428
C 5.45946 -1.33546 2.40825
C 5.69612 1.46464 1.31333
C 6.63374 -0.443916 2.88699
C 6.49229 1.05959 2.57061
O 6.7733 2.07136 3.54421
H 2.43512 -3.09272 0.288815
H 3.52076 -1.14645 -1.63893
H 5.77536 -1.78447 -0.6494
H 4.91767 -2.99106 0.339823
H 4.59948 0.670512 -0.366799
H 5.66106 -2.39941 2.55095
H 5.46594 2.52788 1.25481
H 6.78994 -0.596235 3.94932
H 5.95084 2.14017 4.12337
N 5.09244 -2.90101 -3.26466
C 6.08827 -4.01852 -3.54113
C 7.56529 -3.45814 -3.57667
O 8.42703 -3.88174 -4.64479
C 5.64654 -4.73661 -4.83845
C 4.25253 -5.31443 -4.70615
N 4.46698 -6.61066 -4.11665
O 3.66252 -5.4372 -5.98167
H 4.73712 -2.43964 -4.11561
H 6.10683 -4.74618 -2.72487
H 6.38597 -5.4887 -5.13498
H 5.62645 -4.00198 -5.64076
H 3.98301 -7.30111 -4.68232
H 3.91985 -6.51121 -3.27087
54
Atoms. Timestep: 1400
N 1.15428 -1.74719 2.16349
C 0.376073 -1.63997 0.902594
C 1.43296 -1.10277 -0.153406
O 0.963916 -1.20686 -1.48701
C -0.963155 -0.773456 1.06059
C -2.15983 -1.3355 1.94734
C -1.65987 -0.302349 -0.271027
C -1.8393 -1.69676 3.43155
H 0.594087 -2.22448 2.89061
H 0.120523 -2.64706 0.541818
H -0.626602 0.172546 1.52861
H -2.46733 -2.26713 1.4809
H -2.97674 -0.64117 1.98282
H -0.979878 0.195041 -0.942337
H -2.06061 -1.13897 -0.840718
H -2.45743 0.430489 -0.0958725
H -1.56606 -2.74778 3.54284
H -1.0533 -1.04924 3.8165
H -2.71609 -1.53638 4.07261
N 2.47305 -2.08597 -0.552891
C 3.75204 -1.75223 -1.23876
C 3.9456 -2.92818 -2.23134
O 3.85913 -4.26875 -1.65723
C 4.84489 -1.67341 -0.154366
C 4.51971 -0.560815 0.87966
C 4.81195 0.928893 0.607673
C 4.54542 -0.929046 2.38377
C 6.09621 1.46474 1.32327
C 5.82907 -0.424395 3.09279
C 6.13547 1.05817 2.80436
O 7.18523 1.6037 3.60075
H 2.58 -2.68913 0.26059
H 3.69011 -0.815264 -1.81047
H 5.83666 -1.5315 -0.586591
H 4.878 -2.63552 0.363424
H 4.89684 1.11729 -0.465278
H 4.44476 -2.00859 2.50021
H 6.05294 2.55396 1.2945
H 5.65491 -0.516557 4.1648
H 6.7228 1.74739 4.45651
N 4.88318 -2.66827 -3.35985
C 5.802 -3.83335 -3.71575
C 7.29561 -3.3961 -3.95249
O 8.17582 -4.4498 -3.558
C 5.35373 -4.50405 -5.07359
C 4.12053 -5.44224 -5.04364
N 4.24154 -6.61965 -4.20414
O 4.08749 -6.28715 -6.16524
H 4.23237 -2.41692 -4.11356
H 5.87981 -4.57803 -2.91724
H 6.14174 -5.13958 -5.47914
H 5.17167 -3.76816 -5.86068
H 3.30006 -6.97062 -4.02129
H 4.6184 -6.36087 -3.31018
54
Atoms. Timestep: 1500
N 1.22214 -1.68273 2.22918
C 0.293277 -1.56278 1.05465
C 1.25839 -1.18838 -0.159182
O 0.553054 -0.890181 -1.31421
C -1.05039 -0.737768 1.39444
C -2.31025 -1.52218 1.99905
C -1.64676 0.00771087 0.149403
C -2.06222 -2.16742 3.39426
H 0.798926 -2.19214 2.99642
H -0.0541812 -2.58566 0.810065
H -0.771871 0.0441677 2.12608
H -2.62115 -2.27838 1.31011
H -3.16343 -0.871289 2.16246
H -0.884337 0.604096 -0.315455
H -2.01239 -0.659788 -0.627712
H -2.42712 0.722419 0.435553
H -1.29861 -2.93442 3.31889
H -1.80661 -1.44555 4.178
H -2.9548 -2.71152 3.70746
N 2.32837 -2.16359 -0.64468
C 3.65801 -1.9598 -1.40481
C 4.31268 -3.20241 -2.18523
O 4.154 -4.40615 -1.44954
C 4.79773 -1.23536 -0.552488
C 4.31988 -0.0796708 0.387235
C 5.1832 1.25038 0.337795
C 4.00699 -0.476968 1.88286
C 6.48825 1.03381 1.17249
C 5.14839 -0.288186 2.94273
C 6.03845 0.954096 2.65121
O 6.92794 1.26544 3.72574
H 2.30783 -2.96916 -0.0206321
H 3.36681 -1.30685 -2.23285
H 5.47443 -0.787058 -1.28475
H 5.39929 -1.96002 0.00665603
H 5.38304 1.56391 -0.688656
H 3.59639 -1.47302 1.96767
H 7.21822 1.84003 1.09282
H 4.71941 -0.182806 3.94115
H 6.3376 1.69652 4.36949
N 5.65413 -2.95046 -2.87748
C 6.34456 -4.13274 -3.56083
C 7.84064 -3.68938 -3.90083
O 8.61603 -4.70302 -4.57813
C 5.61921 -4.69287 -4.86523
C 4.2127 -5.35303 -4.66197
N 4.05172 -6.60594 -3.86154
O 3.46612 -5.43641 -5.92532
H 5.37031 -2.28263 -3.60361
H 6.48306 -4.9618 -2.8572
H 6.24418 -5.39451 -5.4176
H 5.48566 -3.86462 -5.56927
H 3.75672 -7.30761 -4.54467
H 3.21132 -6.43146 -3.30717
54
Atoms. Timestep: 1600
N 1.0287 -2.63049 1.98653
C 0.255448 -1.95606 0.84809
C 1.25468 -1.40897 -0.290446
O 0.611107 -1.03545 -1.49107
C -0.703636 -0.860976 1.49645
C -2.12749 -1.50129 1.8553
C -0.931804 0.382098 0.567097
C -2.26809 -2.7274 2.84291
H 0.418814 -3.17793 2.63554
H -0.363707 -2.71182 0.31185
H -0.303277 -0.496843 2.45637
H -2.62094 -1.80153 0.966902
H -2.70882 -0.705414 2.32441
H -0.0365103 0.99921 0.503801
H -1.19625 0.0312873 -0.426288
H -1.77146 0.992046 0.864923
H -1.93511 -3.67316 2.39624
H -1.67652 -2.55021 3.7368
H -3.30559 -2.86483 3.13574
N 2.45261 -2.29866 -0.52729
C 3.75425 -1.92257 -1.17857
C 4.32149 -3.25093 -1.91371
O 4.55585 -4.2723 -0.950339
C 4.75237 -1.14306 -0.227783
C 4.39341 0.351845 0.173168
C 5.58963 1.3653 0.0442609
C 3.70378 0.474916 1.59892
C 6.62047 1.316 1.21359
C 4.79292 0.264912 2.68937
C 5.95772 1.27422 2.60519
O 6.89225 0.921642 3.61827
H 2.73995 -2.76529 0.328036
H 3.54452 -1.23229 -2.00661
H 5.75013 -1.15557 -0.663702
H 4.85035 -1.70423 0.712683
H 6.06412 1.34786 -0.938368
H 2.97984 -0.344762 1.6826
H 7.27957 2.18225 1.18394
H 4.43957 0.0997481 3.70995
H 6.45431 1.18953 4.46562
N 5.56811 -3.07889 -2.69446
C 6.17335 -4.23423 -3.44985
C 7.73489 -4.19747 -3.60721
O 8.26856 -4.73541 -4.82299
C 5.42636 -4.59554 -4.77265
C 4.05394 -5.18286 -4.56092
N 4.09391 -6.54337 -4.10464
O 3.16195 -5.14941 -5.62668
H 5.51681 -2.1891 -3.19295
H 6.08188 -5.11749 -2.81357
H 5.99689 -5.23703 -5.44506
H 5.27736 -3.65344 -5.30118
H 4.13264 -7.1476 -4.94192
H 3.14473 -6.64822 -3.72501
54
Atoms. Timestep: 1700
N 0.424245 -3.43022 1.71124
C 0.268574 -2.23281 0.749476
C 1.52815 -1.57895 -0.0136423
O 1.29718 -0.937101 -1.33284
C -0.502884 -1.21741 1.67808
C -2.07409 -1.3889 1.48132
C -0.139988 0.288702 1.32076
C -2.81711 -2.77221 1.60124
H -0.417253 -4.01926 1.75564
H -0.352148 -2.58279 -0.109329
H -0.229723 -1.35146 2.73299
H -2.26282 -0.989885 0.498276
H -2.55068 -0.721771 2.17328
H 0.827702 0.586086 1.68714
H -0.227344 0.523442 0.252225
H -0.859985 0.912792 1.8447
H -2.37581 -3.50334 0.932744
H -2.7027 -3.12496 2.61897
H -3.88544 -2.68095 1.37569
N 2.70634 -2.46479 -0.149057
C 4.00347 -2.03422 -0.769588
C 4.68858 -3.25217 -1.58563
O 5.63968 -3.92568 -0.782098
C 4.8349 -1.18809 0.301876
C 4.49732 0.33686 0.297324
C 5.67282 1.31514 0.0797338
C 3.70074 0.801696 1.52493
C 6.65809 1.19603 1.23465
C 4.48793 1.20511 2.8023
C 5.95118 1.6812 2.52815
O 6.69445 1.2695 3.61965
H 2.83087 -2.85759 0.782411
H 3.7829 -1.32308 -1.56625
H 5.89072 -1.31642 0.0840969
H 4.70203 -1.6226 1.30369
H 6.17346 1.19934 -0.880487
H 2.91996 0.0702432 1.74945