LAMMPS (17 Nov 2015)
WARNING: OMP_NUM_THREADS environment is not set. (../comm.cpp:90)
  using 1 OpenMP thread(s) per MPI task
# EOS and bulk modulus of fcc Aluminum
#
# ---------- Initialize Simulation ---------------------
units metal
dimension 3
boundary p p p
atom_style atomic
atom_modify map array

variable	per equal 100

# ---------- Define simulation box ------------
lattice 	fcc 4.046
Lattice spacing in x,y,z = 4.046 4.046 4.046
region		box block 0 1 0 1 0 1 units lattice
create_box	1 box
Created orthogonal box = (0 0 0) to (4.046 4.046 4.046)
  1 by 1 by 1 MPI processor grid
lattice		fcc 4.046 orient x 1 0 0 orient y 0 1 0 orient z 0 0 1
Lattice spacing in x,y,z = 4.046 4.046 4.046
create_atoms 	1 box
Created 4 atoms

# ---------- Define Interatomic Potential ---------------------
pair_style 	eam/fs
pair_coeff 	* * Al_mm.eam.fs Al
Reading potential file Al_mm.eam.fs with DATE: 2007-06-11
#pair_coeff	* * Al_zhou.eam.alloy Al
neighbor 	2.0 bin
neigh_modify 	delay 10 check yes one 30000 page 300000

# ---------- Output ---------------------
thermo 10
thermo_style 	custom step etotal vol epair

dump            1 all xyz 100 Al_expand.xyz
dump_modify     1 element Al

# ---------- Find equilibrium box size ---------------------
min_style	cg
fix             2 all box/relax iso 0.0 vmax 0.001
minimize	0 1e-6 2000 4000
WARNING: Resetting reneighboring criteria during minimization (../min.cpp:168)
Neighbor list info ...
  1 neighbor list requests
  update every 1 steps, delay 0 steps, check yes
  max neighbors/atom: 30000, page size: 300000
  master list distance cutoff = 8.5
  ghost atom cutoff = 8.5
  binsize = 4.25 -> bins = 1 1 1
Memory usage per processor = 4.78603 Mbytes
Step TotEng Volume E_pair 
       0   -13.642623    66.233489   -13.642623 
       4   -13.642628    66.197144   -13.642628 
Loop time of 0.000386 on 1 procs for 4 steps with 4 atoms

0.0% CPU use with 1 MPI tasks x 1 OpenMP threads

Minimization stats:
  Stopping criterion = force tolerance
  Energy initial, next-to-last, final = 
        -13.6426232047     -13.6426278149     -13.6426278149
  Force two-norm initial, final = 0.0505674 1.44339e-09
  Force max component initial, final = 0.0505674 1.44339e-09
  Final line search alpha, max atom move = 1 1.44339e-09
  Iterations, force evaluations = 4 8

MPI task timing breakdown:
Section |  min time  |  avg time  |  max time  |%varavg| %total
---------------------------------------------------------------
Pair    | 0.0001719  | 0.0001719  | 0.0001719  |   0.0 | 44.53
Neigh   | 0          | 0          | 0          |   0.0 |  0.00
Comm    | 3.5048e-05 | 3.5048e-05 | 3.5048e-05 |   0.0 |  9.08
Output  | 0          | 0          | 0          |   0.0 |  0.00
Modify  | 0          | 0          | 0          |   0.0 |  0.00
Other   |            | 0.0001791  |            |       | 46.39

Nlocal:    4 ave 4 max 4 min
Histogram: 1 0 0 0 0 0 0 0 0 0
Nghost:    662 ave 662 max 662 min
Histogram: 1 0 0 0 0 0 0 0 0 0
Neighs:    280 ave 280 max 280 min
Histogram: 1 0 0 0 0 0 0 0 0 0

Total # of neighbors = 280
Ave neighs/atom = 70
Neighbor list builds = 0
Dangerous builds = 0

variable	dim equal lx
variable	Eequil equal etotal/count(all)
print           "Lattice constant = ${dim}, Energy = ${Eequil} kcal/mol"
Lattice constant = 4.04525979343804, Energy = -3.4106569537186 kcal/mol

unfix		2

variable	etkcal equal etotal*23/count(all)
variable	etev equal etotal/count(all)
variable 	vt equal vol/count(all)

# compress box to 2% and do expansion
change_box      all x scale 0.95 y scale 0.95 z scale 0.95 remap units box
  orthogonal box = (0.101502 0.000370103 0.000370103) to (3.9445 4.04563 4.04563)
  orthogonal box = (0.101502 0.101502 0.000370103) to (3.9445 3.9445 4.04563)
  orthogonal box = (0.101502 0.101502 0.101502) to (3.9445 3.9445 3.9445)
minimize        0 1e-6 5000 10000
WARNING: Resetting reneighboring criteria during minimization (../min.cpp:168)
Memory usage per processor = 4.78603 Mbytes
Step TotEng Volume E_pair 
       4    -13.08832    56.755776    -13.08832 
       5    -13.08832    56.755776    -13.08832 
Loop time of 0.000142097 on 1 procs for 1 steps with 4 atoms

0.0% CPU use with 1 MPI tasks x 1 OpenMP threads

Minimization stats:
  Stopping criterion = force tolerance
  Energy initial, next-to-last, final = 
        -13.0883202662     -13.0883202662     -13.0883202662
  Force two-norm initial, final = 7.99587e-15 7.25723e-15
  Force max component initial, final = 3.20664e-15 2.89612e-15
  Final line search alpha, max atom move = 1 2.89612e-15
  Iterations, force evaluations = 1 2

MPI task timing breakdown:
Section |  min time  |  avg time  |  max time  |%varavg| %total
---------------------------------------------------------------
Pair    | 4.8876e-05 | 4.8876e-05 | 4.8876e-05 |   0.0 | 34.40
Neigh   | 0          | 0          | 0          |   0.0 |  0.00
Comm    | 1.1206e-05 | 1.1206e-05 | 1.1206e-05 |   0.0 |  7.89
Output  | 0          | 0          | 0          |   0.0 |  0.00
Modify  | 0          | 0          | 0          |   0.0 |  0.00
Other   |            | 8.202e-05  |            |       | 57.72

Nlocal:    4 ave 4 max 4 min
Histogram: 1 0 0 0 0 0 0 0 0 0
Nghost:    662 ave 662 max 662 min
Histogram: 1 0 0 0 0 0 0 0 0 0
Neighs:    352 ave 352 max 352 min
Histogram: 1 0 0 0 0 0 0 0 0 0

Total # of neighbors = 352
Ave neighs/atom = 88
Neighbor list builds = 0
Dangerous builds = 0
print           "Vol and Energy = ${vt} ${etev} ${etkcal}"
Vol and Energy = 14.1889441237374 -3.27208006655313 -75.257841530722

# ----------- Expand ------------------
variable 	e loop ${per}
variable 	e loop 100
label		loop1
change_box 	all x scale 1.001 y scale 1.001 z scale 1.001 remap units box
  orthogonal box = (0.0995801 0.101502 0.101502) to (3.94642 3.9445 3.9445)
  orthogonal box = (0.0995801 0.0995801 0.101502) to (3.94642 3.94642 3.9445)
  orthogonal box = (0.0995801 0.0995801 0.0995801) to (3.94642 3.94642 3.94642)
minimize 	0 1e-6 5000 10000
WARNING: Resetting reneighboring criteria during minimization (../min.cpp:168)
Memory usage per processor = 4.78603 Mbytes
Step TotEng Volume E_pair 
       5    -13.11236    56.926214    -13.11236 
       6    -13.11236    56.926214    -13.11236 
Loop time of 0.000157118 on 1 procs for 1 steps with 4 atoms

0.0% CPU use with 1 MPI tasks x 1 OpenMP threads

Minimization stats:
  Stopping criterion = force tolerance
  Energy initial, next-to-last, final = 
        -13.1123598029     -13.1123598029     -13.1123598029
  Force two-norm initial, final = 1.44733e-14 6.4709e-15
  Force max component initial, final = 5.10703e-15 3.21965e-15
  Final line search alpha, max atom move = 1 3.21965e-15
  Iterations, force evaluations = 1 2

MPI task timing breakdown:
Section |  min time  |  avg time  |  max time  |%varavg| %total
---------------------------------------------------------------
Pair    | 7.0333e-05 | 7.0333e-05 | 7.0333e-05 |   0.0 | 44.76
Neigh   | 0          | 0          | 0          |   0.0 |  0.00
Comm    | 1.6689e-05 | 1.6689e-05 | 1.6689e-05 |   0.0 | 10.62
Output  | 0          | 0          | 0          |   0.0 |  0.00
Modify  | 0          | 0          | 0          |   0.0 |  0.00
Other   |            | 7.01e-05   |            |       | 44.61

Nlocal:    4 ave 4 max 4 min
Histogram: 1 0 0 0 0 0 0 0 0 0
Nghost:    662 ave 662 max 662 min
Histogram: 1 0 0 0 0 0 0 0 0 0
Neighs:    352 ave 352 max 352 min
Histogram: 1 0 0 0 0 0 0 0 0 0

Total # of neighbors = 352
Ave neighs/atom = 88
Neighbor list builds = 0
Dangerous builds = 0
print           "Vol and Energy = ${vt}	${etev} ${etkcal}"
Vol and Energy = 14.23155353713	-3.27808995073645 -75.3960688669383
next		e
jump		SELF loop1
change_box 	all x scale 1.001 y scale 1.001 z scale 1.001 remap units box
  orthogonal box = (0.0976567 0.0995801 0.0995801) to (3.94834 3.94642 3.94642)
  orthogonal box = (0.0976567 0.0976567 0.0995801) to (3.94834 3.94834 3.94642)
  orthogonal box = (0.0976567 0.0976567 0.0976567) to (3.94834 3.94834 3.94834)
minimize 	0 1e-6 5000 10000
WARNING: Resetting reneighboring criteria during minimization (../min.cpp:168)
Memory usage per processor = 4.78603 Mbytes
Step TotEng Volume E_pair 
       6   -13.135946    57.097164   -13.135946 
       7   -13.135946    57.097164   -13.135946 
Loop time of 0.000154972 on 1 procs for 1 steps with 4 atoms

0.0% CPU use with 1 MPI tasks x 1 OpenMP threads

Minimization stats:
  Stopping criterion = force tolerance
  Energy initial, next-to-last, final = 
         -13.135946216      -13.135946216      -13.135946216
  Force two-norm initial, final = 1.18137e-14 3.88782e-15
  Force max component initial, final = 7.66054e-15 1.85268e-15
  Final line search alpha, max atom move = 1 1.85268e-15
  Iterations, force evaluations = 1 2

MPI task timing breakdown:
Section |  min time  |  avg time  |  max time  |%varavg| %total
---------------------------------------------------------------
Pair    | 6.6996e-05 | 6.6996e-05 | 6.6996e-05 |   0.0 | 43.23
Neigh   | 0          | 0          | 0          |   0.0 |  0.00
Comm    | 1.5974e-05 | 1.5974e-05 | 1.5974e-05 |   0.0 | 10.31
Output  | 0          | 0          | 0          |   0.0 |  0.00
Modify  | 0          | 0          | 0          |   0.0 |  0.00
Other   |            | 7.2e-05    |            |       | 46.46

Nlocal:    4 ave 4 max 4 min
Histogram: 1 0 0 0 0 0 0 0 0 0
Nghost:    662 ave 662 max 662 min
Histogram: 1 0 0 0 0 0 0 0 0 0
Neighs:    352 ave 352 max 352 min
Histogram: 1 0 0 0 0 0 0 0 0 0

Total # of neighbors = 352
Ave neighs/atom = 88
Neighbor list builds = 0
Dangerous builds = 0
print           "Vol and Energy = ${vt}	${etev} ${etkcal}"
Vol and Energy = 14.2742909066335	-3.28398655398949 -75.5316907417583
next		e
jump		SELF loop1
change_box 	all x scale 1.001 y scale 1.001 z scale 1.001 remap units box
  orthogonal box = (0.0957313 0.0976567 0.0976567) to (3.95027 3.94834 3.94834)
  orthogonal box = (0.0957313 0.0957313 0.0976567) to (3.95027 3.95027 3.94834)
  orthogonal box = (0.0957313 0.0957313 0.0957313) to (3.95027 3.95027 3.95027)
minimize 	0 1e-6 5000 10000
WARNING: Resetting reneighboring criteria during minimization (../min.cpp:168)
Memory usage per processor = 4.78603 Mbytes
Step TotEng Volume E_pair 
       7   -13.159054    57.268626   -13.159054 
       8   -13.159054    57.268626   -13.159054 
Loop time of 0.0002141 on 1 procs for 1 steps with 4 atoms

0.0% CPU use with 1 MPI tasks x 1 OpenMP threads

Minimization stats:
  Stopping criterion = force tolerance
  Energy initial, next-to-last, final = 
         -13.159053902      -13.159053902      -13.159053902
  Force two-norm initial, final = 9.32659e-15 5.32262e-15
  Force max component initial, final = 3.77476e-15 3.21965e-15
  Final line search alpha, max atom move = 1 3.21965e-15
  Iterations, force evaluations = 1 2

MPI task timing breakdown:
Section |  min time  |  avg time  |  max time  |%varavg| %total
---------------------------------------------------------------
Pair    | 6.175e-05  | 6.175e-05  | 6.175e-05  |   0.0 | 28.84
Neigh   | 0          | 0          | 0          |   0.0 |  0.00
Comm    | 1.6451e-05 | 1.6451e-05 | 1.6451e-05 |   0.0 |  7.68
Output  | 0          | 0          | 0          |   0.0 |  0.00
Modify  | 0          | 0          | 0          |   0.0 |  0.00
Other   |            | 0.0001359  |            |       | 63.47

Nlocal:    4 ave 4 max 4 min
Histogram: 1 0 0 0 0 0 0 0 0 0
Nghost:    662 ave 662 max 662 min
Histogram: 1 0 0 0 0 0 0 0 0 0
Neighs:    352 ave 352 max 352 min
Histogram: 1 0 0 0 0 0 0 0 0 0

Total # of neighbors = 352
Ave neighs/atom = 88
Neighbor list builds = 0
Dangerous builds = 0
print           "Vol and Energy = ${vt}	${etev} ${etkcal}"
Vol and Energy = 14.3171566165004	-3.28976347548858 -75.6645599362373
next		e
jump		SELF loop1
change_box 	all x scale 1.001 y scale 1.001 z scale 1.001 remap units box
  orthogonal box = (0.0938041 0.0957313 0.0957313) to (3.9522 3.95027 3.95027)
  orthogonal box = (0.0938041 0.0938041 0.0957313) to (3.9522 3.9522 3.95027)
  orthogonal box = (0.0938041 0.0938041 0.0938041) to (3.9522 3.9522 3.9522)
minimize 	0 1e-6 5000 10000
WARNING: Resetting reneighboring criteria during minimization (../min.cpp:168)
Memory usage per processor = 4.78603 Mbytes
Step TotEng Volume E_pair 
       8    -13.18166    57.440604    -13.18166 
       9    -13.18166    57.440604    -13.18166 
Loop time of 0.000178099 on 1 procs for 1 steps with 4 atoms

0.0% CPU use with 1 MPI tasks x 1 OpenMP threads

Minimization stats:
  Stopping criterion = force tolerance
  Energy initial, next-to-last, final = 
        -13.1816600763     -13.1816600763     -13.1816600763
  Force two-norm initial, final = 1.23448e-14 8.29575e-15
  Force max component initial, final = 1.02279e-14 6.05072e-15
  Final line search alpha, max atom move = 1 6.05072e-15
  Iterations, force evaluations = 1 2

MPI task timing breakdown:
Section |  min time  |  avg time  |  max time  |%varavg| %total
---------------------------------------------------------------
Pair    | 6.8903e-05 | 6.8903e-05 | 6.8903e-05 |   0.0 | 38.69
Neigh   | 0          | 0          | 0          |   0.0 |  0.00
Comm    | 1.0729e-05 | 1.0729e-05 | 1.0729e-05 |   0.0 |  6.02
Output  | 0          | 0          | 0          |   0.0 |  0.00
Modify  | 0          | 0          | 0          |   0.0 |  0.00
Other   |            | 9.847e-05  |            |       | 55.29

Nlocal:    4 ave 4 max 4 min
Histogram: 1 0 0 0 0 0 0 0 0 0
Nghost:    662 ave 662 max 662 min
Histogram: 1 0 0 0 0 0 0 0 0 0
Neighs:    352 ave 352 max 352 min
Histogram: 1 0 0 0 0 0 0 0 0 0

Total # of neighbors = 352
Ave neighs/atom = 88
Neighbor list builds = 0
Dangerous builds = 0
print           "Vol and Energy = ${vt}	${etev} ${etkcal}"
Vol and Energy = 14.3601510521369	-3.29541501907717 -75.7945454387749
next		e
jump		SELF loop1
change_box 	all x scale 1.001 y scale 1.001 z scale 1.001 remap units box
  orthogonal box = (0.0918749 0.0938041 0.0938041) to (3.95413 3.9522 3.9522)
  orthogonal box = (0.0918749 0.0918749 0.0938041) to (3.95413 3.95413 3.9522)
  orthogonal box = (0.0918749 0.0918749 0.0918749) to (3.95413 3.95413 3.95413)
minimize 	0 1e-6 5000 10000
WARNING: Resetting reneighboring criteria during minimization (../min.cpp:168)
Memory usage per processor = 4.78603 Mbytes
Step TotEng Volume E_pair 
       9   -13.203744    57.613098   -13.203744 
      10   -13.203744    57.613098   -13.203744 
Loop time of 0.000144958 on 1 procs for 1 steps with 4 atoms

0.0% CPU use with 1 MPI tasks x 1 OpenMP threads

Minimization stats:
  Stopping criterion = force tolerance
  Energy initial, next-to-last, final = 
        -13.2037436197     -13.2037436197     -13.2037436197
  Force two-norm initial, final = 1.00942e-14 5.12496e-15
  Force max component initial, final = 6.38378e-15 2.16754e-15
  Final line search alpha, max atom move = 1 2.16754e-15
  Iterations, force evaluations = 1 2

MPI task timing breakdown:
Section |  min time  |  avg time  |  max time  |%varavg| %total
---------------------------------------------------------------
Pair    | 6.0081e-05 | 6.0081e-05 | 6.0081e-05 |   0.0 | 41.45
Neigh   | 0          | 0          | 0          |   0.0 |  0.00
Comm    | 1.0967e-05 | 1.0967e-05 | 1.0967e-05 |   0.0 |  7.57
Output  | 0          | 0          | 0          |   0.0 |  0.00
Modify  | 0          | 0          | 0          |   0.0 |  0.00
Other   |            | 7.391e-05  |            |       | 50.99

Nlocal:    4 ave 4 max 4 min
Histogram: 1 0 0 0 0 0 0 0 0 0
Nghost:    662 ave 662 max 662 min
Histogram: 1 0 0 0 0 0 0 0 0 0
Neighs:    352 ave 352 max 352 min
Histogram: 1 0 0 0 0 0 0 0 0 0

Total # of neighbors = 352
Ave neighs/atom = 88
Neighbor list builds = 0
Dangerous builds = 0
print           "Vol and Energy = ${vt}	${etev} ${etkcal}"
Vol and Energy = 14.4032746001066	-3.30093590492756 -75.921525813334
next		e
jump		SELF loop1
change_box 	all x scale 1.001 y scale 1.001 z scale 1.001 remap units box
  orthogonal box = (0.0899437 0.0918749 0.0918749) to (3.95606 3.95413 3.95413)
  orthogonal box = (0.0899437 0.0899437 0.0918749) to (3.95606 3.95606 3.95413)
  orthogonal box = (0.0899437 0.0899437 0.0899437) to (3.95606 3.95606 3.95606)
minimize 	0 1e-6 5000 10000
WARNING: Resetting reneighboring criteria during minimization (../min.cpp:168)
Memory usage per processor = 4.78603 Mbytes
Step TotEng Volume E_pair 
      10   -13.225287    57.786111   -13.225287 
      11   -13.225287    57.786111   -13.225287 
Loop time of 0.000128031 on 1 procs for 1 steps with 4 atoms

0.0% CPU use with 1 MPI tasks x 1 OpenMP threads

Minimization stats:
  Stopping criterion = force tolerance
  Energy initial, next-to-last, final = 
        -13.2252866135     -13.2252866135     -13.2252866135
  Force two-norm initial, final = 1.42979e-14 3.77785e-15
  Force max component initial, final = 6.88338e-15 2.13718e-15
  Final line search alpha, max atom move = 1 2.13718e-15
  Iterations, force evaluations = 1 2

MPI task timing breakdown:
Section |  min time  |  avg time  |  max time  |%varavg| %total
---------------------------------------------------------------
Pair    | 4.4107e-05 | 4.4107e-05 | 4.4107e-05 |   0.0 | 34.45
Neigh   | 0          | 0          | 0          |   0.0 |  0.00
Comm    | 8.8215e-06 | 8.8215e-06 | 8.8215e-06 |   0.0 |  6.89
Output  | 0          | 0          | 0          |   0.0 |  0.00
Modify  | 0          | 0          | 0          |   0.0 |  0.00
Other   |            | 7.51e-05   |            |       | 58.66

Nlocal:    4 ave 4 max 4 min
Histogram: 1 0 0 0 0 0 0 0 0 0
Nghost:    662 ave 662 max 662 min
Histogram: 1 0 0 0 0 0 0 0 0 0
Neighs:    352 ave 352 max 352 min
Histogram: 1 0 0 0 0 0 0 0 0 0

Total # of neighbors = 352
Ave neighs/atom = 88
Neighbor list builds = 0
Dangerous builds = 0
print           "Vol and Energy = ${vt}	${etev} ${etkcal}"
Vol and Energy = 14.446527648134	-3.30632165336545 -76.0453980274054
next		e
jump		SELF loop1
change_box 	all x scale 1.001 y scale 1.001 z scale 1.001 remap units box
  orthogonal box = (0.0880107 0.0899437 0.0899437) to (3.95799 3.95606 3.95606)
  orthogonal box = (0.0880107 0.0880107 0.0899437) to (3.95799 3.95799 3.95606)
  orthogonal box = (0.0880107 0.0880107 0.0880107) to (3.95799 3.95799 3.95799)
minimize 	0 1e-6 5000 10000
WARNING: Resetting reneighboring criteria during minimization (../min.cpp:168)
Memory usage per processor = 4.78603 Mbytes
Step TotEng Volume E_pair 
      11   -13.246272    57.959642   -13.246272 
      12   -13.246272    57.959642   -13.246272 
Loop time of 0.000134945 on 1 procs for 1 steps with 4 atoms

0.0% CPU use with 1 MPI tasks x 1 OpenMP threads

Minimization stats:
  Stopping criterion = quadratic factors are zero
  Energy initial, next-to-last, final = 
        -13.2462718766     -13.2462718766     -13.2462718766
  Force two-norm initial, final = 6.41532e-16 6.41532e-16
  Force max component initial, final = 3.40006e-16 3.40006e-16
  Final line search alpha, max atom move = 1 3.40006e-16
  Iterations, force evaluations = 1 2

MPI task timing breakdown:
Section |  min time  |  avg time  |  max time  |%varavg| %total
---------------------------------------------------------------
Pair    | 6.7711e-05 | 6.7711e-05 | 6.7711e-05 |   0.0 | 50.18
Neigh   | 0          | 0          | 0          |   0.0 |  0.00
Comm    | 1.6451e-05 | 1.6451e-05 | 1.6451e-05 |   0.0 | 12.19
Output  | 0          | 0          | 0          |   0.0 |  0.00
Modify  | 0          | 0          | 0          |   0.0 |  0.00
Other   |            | 5.078e-05  |            |       | 37.63

Nlocal:    4 ave 4 max 4 min
Histogram: 1 0 0 0 0 0 0 0 0 0
Nghost:    662 ave 662 max 662 min
Histogram: 1 0 0 0 0 0 0 0 0 0
Neighs:    352 ave 352 max 352 min
Histogram: 1 0 0 0 0 0 0 0 0 0

Total # of neighbors = 352
Ave neighs/atom = 88
Neighbor list builds = 0
Dangerous builds = 0
print           "Vol and Energy = ${vt}	${etev} ${etkcal}"
Vol and Energy = 14.4899105851079	-3.3115679691573 -76.166063290618
next		e
jump		SELF loop1
change_box 	all x scale 1.001 y scale 1.001 z scale 1.001 remap units box
  orthogonal box = (0.0860757 0.0880107 0.0880107) to (3.95992 3.95799 3.95799)
  orthogonal box = (0.0860757 0.0860757 0.0880107) to (3.95992 3.95992 3.95799)
  orthogonal box = (0.0860757 0.0860757 0.0860757) to (3.95992 3.95992 3.95992)
minimize 	0 1e-6 5000 10000
WARNING: Resetting reneighboring criteria during minimization (../min.cpp:168)
Memory usage per processor = 4.78603 Mbytes
Step TotEng Volume E_pair 
      12   -13.266686    58.133695   -13.266686 
      13   -13.266686    58.133695   -13.266686 
Loop time of 0.000159025 on 1 procs for 1 steps with 4 atoms

0.0% CPU use with 1 MPI tasks x 1 OpenMP threads

Minimization stats:
  Stopping criterion = force tolerance
  Energy initial, next-to-last, final = 
        -13.2666859894     -13.2666859894     -13.2666859894
  Force two-norm initial, final = 6.05023e-15 8.64146e-15
  Force max component initial, final = 2.10942e-15 4.11129e-15
  Final line search alpha, max atom move = 1 4.11129e-15
  Iterations, force evaluations = 1 2

MPI task timing breakdown:
Section |  min time  |  avg time  |  max time  |%varavg| %total
---------------------------------------------------------------
Pair    | 6.8903e-05 | 6.8903e-05 | 6.8903e-05 |   0.0 | 43.33
Neigh   | 0          | 0          | 0          |   0.0 |  0.00
Comm    | 1.5259e-05 | 1.5259e-05 | 1.5259e-05 |   0.0 |  9.60
Output  | 0          | 0          | 0          |   0.0 |  0.00
Modify  | 0          | 0          | 0          |   0.0 |  0.00
Other   |            | 7.486e-05  |            |       | 47.08

Nlocal:    4 ave 4 max 4 min
Histogram: 1 0 0 0 0 0 0 0 0 0
Nghost:    662 ave 662 max 662 min
Histogram: 1 0 0 0 0 0 0 0 0 0
Neighs:    352 ave 352 max 352 min
Histogram: 1 0 0 0 0 0 0 0 0 0

Total # of neighbors = 352
Ave neighs/atom = 88
Neighbor list builds = 0
Dangerous builds = 0
print           "Vol and Energy = ${vt}	${etev} ${etkcal}"
Vol and Energy = 14.5334238010849	-3.31667149735105 -76.2834444390742
next		e
jump		SELF loop1
change_box 	all x scale 1.001 y scale 1.001 z scale 1.001 remap units box
  orthogonal box = (0.0841388 0.0860757 0.0860757) to (3.96186 3.95992 3.95992)
  orthogonal box = (0.0841388 0.0841388 0.0860757) to (3.96186 3.96186 3.95992)
  orthogonal box = (0.0841388 0.0841388 0.0841388) to (3.96186 3.96186 3.96186)
minimize 	0 1e-6 5000 10000
WARNING: Resetting reneighboring criteria during minimization (../min.cpp:168)
Memory usage per processor = 4.78603 Mbytes
Step TotEng Volume E_pair 
      13   -13.286517    58.308271   -13.286517 
      14   -13.286517    58.308271   -13.286517 
Loop time of 0.000163078 on 1 procs for 1 steps with 4 atoms

0.0% CPU use with 1 MPI tasks x 1 OpenMP threads

Minimization stats:
  Stopping criterion = quadratic factors are zero
  Energy initial, next-to-last, final = 
        -13.2865166154     -13.2865166154     -13.2865166154
  Force two-norm initial, final = 5.63116e-16 5.63116e-16
  Force max component initial, final = 3.33067e-16 3.33067e-16
  Final line search alpha, max atom move = 1 3.33067e-16
  Iterations, force evaluations = 1 2

MPI task timing breakdown:
Section |  min time  |  avg time  |  max time  |%varavg| %total
---------------------------------------------------------------
Pair    | 7.1287e-05 | 7.1287e-05 | 7.1287e-05 |   0.0 | 43.71
Neigh   | 0          | 0          | 0          |   0.0 |  0.00
Comm    | 1.4067e-05 | 1.4067e-05 | 1.4067e-05 |   0.0 |  8.63
Output  | 0          | 0          | 0          |   0.0 |  0.00
Modify  | 0          | 0          | 0          |   0.0 |  0.00
Other   |            | 7.772e-05  |            |       | 47.66

Nlocal:    4 ave 4 max 4 min
Histogram: 1 0 0 0 0 0 0 0 0 0
Nghost:    662 ave 662 max 662 min
Histogram: 1 0 0 0 0 0 0 0 0 0
Neighs:    352 ave 352 max 352 min
Histogram: 1 0 0 0 0 0 0 0 0 0

Total # of neighbors = 352
Ave neighs/atom = 88
Neighbor list builds = 0
Dangerous builds = 0
print           "Vol and Energy = ${vt}	${etev} ${etkcal}"
Vol and Energy = 14.577067687293	-3.32162915384085 -76.3974705383396
next		e
jump		SELF loop1
change_box 	all x scale 1.001 y scale 1.001 z scale 1.001 remap units box
  orthogonal box = (0.0821999 0.0841388 0.0841388) to (3.9638 3.96186 3.96186)
  orthogonal box = (0.0821999 0.0821999 0.0841388) to (3.9638 3.9638 3.96186)
  orthogonal box = (0.0821999 0.0821999 0.0821999) to (3.9638 3.9638 3.9638)
minimize 	0 1e-6 5000 10000
WARNING: Resetting reneighboring criteria during minimization (../min.cpp:168)
Memory usage per processor = 4.78603 Mbytes
Step TotEng Volume E_pair 
      14   -13.305753    58.483371   -13.305753 
      15   -13.305753    58.483371   -13.305753 
Loop time of 0.000161886 on 1 procs for 1 steps with 4 atoms

0.0% CPU use with 1 MPI tasks x 1 OpenMP threads

Minimization stats:
  Stopping criterion = force tolerance
  Energy initial, next-to-last, final = 
        -13.3057534225     -13.3057534225     -13.3057534225
  Force two-norm initial, final = 6.64511e-15 5.1909e-16
  Force max component initial, final = 2.5327e-15 3.1572e-16
  Final line search alpha, max atom move = 1 3.1572e-16
  Iterations, force evaluations = 1 2

MPI task timing breakdown:
Section |  min time  |  avg time  |  max time  |%varavg| %total
---------------------------------------------------------------
Pair    | 6.9141e-05 | 6.9141e-05 | 6.9141e-05 |   0.0 | 42.71
Neigh   | 0          | 0          | 0          |   0.0 |  0.00
Comm    | 1.502e-05  | 1.502e-05  | 1.502e-05  |   0.0 |  9.28
Output  | 0          | 0          | 0          |   0.0 |  0.00
Modify  | 0          | 0          | 0          |   0.0 |  0.00
Other   |            | 7.772e-05  |            |       | 48.01

Nlocal:    4 ave 4 max 4 min
Histogram: 1 0 0 0 0 0 0 0 0 0
Nghost:    662 ave 662 max 662 min
Histogram: 1 0 0 0 0 0 0 0 0 0
Neighs:    352 ave 352 max 352 min
Histogram: 1 0 0 0 0 0 0 0 0 0

Total # of neighbors = 352
Ave neighs/atom = 88
Neighbor list builds = 0
Dangerous builds = 0
print           "Vol and Energy = ${vt}	${etev} ${etkcal}"
Vol and Energy = 14.6208426361349	-3.32643835563196 -76.5080821795351
next		e
jump		SELF loop1
change_box 	all x scale 1.001 y scale 1.001 z scale 1.001 remap units box
  orthogonal box = (0.0802591 0.0821999 0.0821999) to (3.96574 3.9638 3.9638)
  orthogonal box = (0.0802591 0.0802591 0.0821999) to (3.96574 3.96574 3.9638)
  orthogonal box = (0.0802591 0.0802591 0.0802591) to (3.96574 3.96574 3.96574)
minimize 	0 1e-6 5000 10000
WARNING: Resetting reneighboring criteria during minimization (../min.cpp:168)
Memory usage per processor = 4.78603 Mbytes
Step TotEng Volume E_pair 
      15   -13.324389    58.658996   -13.324389 
      16   -13.324389    58.658996   -13.324389 
Loop time of 0.000164986 on 1 procs for 1 steps with 4 atoms

0.0% CPU use with 1 MPI tasks x 1 OpenMP threads

Minimization stats:
  Stopping criterion = force tolerance
  Energy initial, next-to-last, final = 
        -13.3243893555     -13.3243893555     -13.3243893555
  Force two-norm initial, final = 6.21029e-15 2.71191e-15
  Force max component initial, final = 2.94036e-15 1.93595e-15
  Final line search alpha, max atom move = 1 1.93595e-15
  Iterations, force evaluations = 1 2

MPI task timing breakdown:
Section |  min time  |  avg time  |  max time  |%varavg| %total
---------------------------------------------------------------
Pair    | 6.1274e-05 | 6.1274e-05 | 6.1274e-05 |   0.0 | 37.14
Neigh   | 0          | 0          | 0          |   0.0 |  0.00
Comm    | 1.5736e-05 | 1.5736e-05 | 1.5736e-05 |   0.0 |  9.54
Output  | 0          | 0          | 0          |   0.0 |  0.00
Modify  | 0          | 0          | 0          |   0.0 |  0.00
Other   |            | 8.798e-05  |            |       | 53.32

Nlocal:    4 ave 4 max 4 min
Histogram: 1 0 0 0 0 0 0 0 0 0
Nghost:    662 ave 662 max 662 min
Histogram: 1 0 0 0 0 0 0 0 0 0
Neighs:    352 ave 352 max 352 min
Histogram: 1 0 0 0 0 0 0 0 0 0

Total # of neighbors = 352
Ave neighs/atom = 88
Neighbor list builds = 0
Dangerous builds = 0
print           "Vol and Energy = ${vt}	${etev} ${etkcal}"
Vol and Energy = 14.6647490411921	-3.3310973388796 -76.6152387942308
next		e
jump		SELF loop1
change_box 	all x scale 1.001 y scale 1.001 z scale 1.001 remap units box
  orthogonal box = (0.0783164 0.0802591 0.0802591) to (3.96768 3.96574 3.96574)
  orthogonal box = (0.0783164 0.0783164 0.0802591) to (3.96768 3.96768 3.96574)
  orthogonal box = (0.0783164 0.0783164 0.0783164) to (3.96768 3.96768 3.96768)
minimize 	0 1e-6 5000 10000
WARNING: Resetting reneighboring criteria during minimization (../min.cpp:168)
Memory usage per processor = 4.78603 Mbytes
Step TotEng Volume E_pair 
      16   -13.342418    58.835149   -13.342418 
      17   -13.342418    58.835149   -13.342418 
Loop time of 0.000172138 on 1 procs for 1 steps with 4 atoms

0.0% CPU use with 1 MPI tasks x 1 OpenMP threads

Minimization stats:
  Stopping criterion = force tolerance
  Energy initial, next-to-last, final = 
         -13.342418115      -13.342418115      -13.342418115
  Force two-norm initial, final = 5.81654e-15 6.12322e-15
  Force max component initial, final = 3.66027e-15 2.8727e-15
  Final line search alpha, max atom move = 1 2.8727e-15
  Iterations, force evaluations = 1 2

MPI task timing breakdown:
Section |  min time  |  avg time  |  max time  |%varavg| %total
---------------------------------------------------------------
Pair    | 6.8903e-05 | 6.8903e-05 | 6.8903e-05 |   0.0 | 40.03
Neigh   | 0          | 0          | 0          |   0.0 |  0.00
Comm    | 8.1062e-06 | 8.1062e-06 | 8.1062e-06 |   0.0 |  4.71
Output  | 0          | 0          | 0          |   0.0 |  0.00
Modify  | 0          | 0          | 0          |   0.0 |  0.00
Other   |            | 9.513e-05  |            |       | 55.26

Nlocal:    4 ave 4 max 4 min
Histogram: 1 0 0 0 0 0 0 0 0 0
Nghost:    662 ave 662 max 662 min
Histogram: 1 0 0 0 0 0 0 0 0 0
Neighs:    352 ave 352 max 352 min
Histogram: 1 0 0 0 0 0 0 0 0 0

Total # of neighbors = 352
Ave neighs/atom = 88
Neighbor list builds = 0
Dangerous builds = 0
print           "Vol and Energy = ${vt}	${etev} ${etkcal}"
Vol and Energy = 14.7087872972275	-3.33560452876102 -76.7189041615034
next		e
jump		SELF loop1
change_box 	all x scale 1.001 y scale 1.001 z scale 1.001 remap units box
  orthogonal box = (0.0763717 0.0783164 0.0783164) to (3.96963 3.96768 3.96768)
  orthogonal box = (0.0763717 0.0763717 0.0783164) to (3.96963 3.96963 3.96768)
  orthogonal box = (0.0763717 0.0763717 0.0763717) to (3.96963 3.96963 3.96963)
minimize 	0 1e-6 5000 10000
WARNING: Resetting reneighboring criteria during minimization (../min.cpp:168)
Memory usage per processor = 4.78603 Mbytes
Step TotEng Volume E_pair 
      17   -13.359836    59.011831   -13.359836 
      18   -13.359836    59.011831   -13.359836 
Loop time of 0.000159979 on 1 procs for 1 steps with 4 atoms

0.0% CPU use with 1 MPI tasks x 1 OpenMP threads

Minimization stats:
  Stopping criterion = force tolerance
  Energy initial, next-to-last, final = 
        -13.3598357053     -13.3598357053     -13.3598357053
  Force two-norm initial, final = 9.94425e-15 2.3503e-15
  Force max component initial, final = 3.9968e-15 1.27589e-15
  Final line search alpha, max atom move = 1 1.27589e-15
  Iterations, force evaluations = 1 2

MPI task timing breakdown:
Section |  min time  |  avg time  |  max time  |%varavg| %total
---------------------------------------------------------------
Pair    | 6.7234e-05 | 6.7234e-05 | 6.7234e-05 |   0.0 | 42.03
Neigh   | 0          | 0          | 0          |   0.0 |  0.00
Comm    | 1.4782e-05 | 1.4782e-05 | 1.4782e-05 |   0.0 |  9.24
Output  | 0          | 0          | 0          |   0.0 |  0.00
Modify  | 0          | 0          | 0          |   0.0 |  0.00
Other   |            | 7.796e-05  |            |       | 48.73

Nlocal:    4 ave 4 max 4 min
Histogram: 1 0 0 0 0 0 0 0 0 0
Nghost:    662 ave 662 max 662 min
Histogram: 1 0 0 0 0 0 0 0 0 0
Neighs:    352 ave 352 max 352 min
Histogram: 1 0 0 0 0 0 0 0 0 0

Total # of neighbors = 352
Ave neighs/atom = 88
Neighbor list builds = 0
Dangerous builds = 0
print           "Vol and Energy = ${vt}	${etev} ${etkcal}"
Vol and Energy = 14.7529578001899	-3.33995892632302 -76.8190553054295
next		e
jump		SELF loop1
change_box 	all x scale 1.001 y scale 1.001 z scale 1.001 remap units box
  orthogonal box = (0.0744251 0.0763717 0.0763717) to (3.97157 3.96963 3.96963)
  orthogonal box = (0.0744251 0.0744251 0.0763717) to (3.97157 3.97157 3.96963)
  orthogonal box = (0.0744251 0.0744251 0.0744251) to (3.97157 3.97157 3.97157)
minimize 	0 1e-6 5000 10000
WARNING: Resetting reneighboring criteria during minimization (../min.cpp:168)
Memory usage per processor = 4.78603 Mbytes
Step TotEng Volume E_pair 
      18    -13.37664    59.189044    -13.37664 
      19    -13.37664    59.189044    -13.37664 
Loop time of 0.000159979 on 1 procs for 1 steps with 4 atoms

0.0% CPU use with 1 MPI tasks x 1 OpenMP threads

Minimization stats:
  Stopping criterion = quadratic factors are zero
  Energy initial, next-to-last, final = 
        -13.3766404672     -13.3766404672     -13.3766404672
  Force two-norm initial, final = 2.26987e-15 2.26987e-15
  Force max component initial, final = 1.17267e-15 1.17267e-15
  Final line search alpha, max atom move = 1 1.17267e-15
  Iterations, force evaluations = 1 2

MPI task timing breakdown:
Section |  min time  |  avg time  |  max time  |%varavg| %total
---------------------------------------------------------------
Pair    | 6.6042e-05 | 6.6042e-05 | 6.6042e-05 |   0.0 | 41.28
Neigh   | 0          | 0          | 0          |   0.0 |  0.00
Comm    | 1.6212e-05 | 1.6212e-05 | 1.6212e-05 |   0.0 | 10.13
Output  | 0          | 0          | 0          |   0.0 |  0.00
Modify  | 0          | 0          | 0          |   0.0 |  0.00
Other   |            | 7.772e-05  |            |       | 48.58

Nlocal:    4 ave 4 max 4 min
Histogram: 1 0 0 0 0 0 0 0 0 0
Nghost:    662 ave 662 max 662 min
Histogram: 1 0 0 0 0 0 0 0 0 0
Neighs:    352 ave 352 max 352 min
Histogram: 1 0 0 0 0 0 0 0 0 0

Total # of neighbors = 352
Ave neighs/atom = 88
Neighbor list builds = 0
Dangerous builds = 0
print           "Vol and Energy = ${vt}	${etev} ${etkcal}"
Vol and Energy = 14.7972609472168	-3.34416011679489 -76.9156826862825
next		e
jump		SELF loop1
change_box 	all x scale 1.001 y scale 1.001 z scale 1.001 remap units box
  orthogonal box = (0.0724765 0.0744251 0.0744251) to (3.97352 3.97157 3.97157)
  orthogonal box = (0.0724765 0.0724765 0.0744251) to (3.97352 3.97352 3.97157)
  orthogonal box = (0.0724765 0.0724765 0.0724765) to (3.97352 3.97352 3.97352)
minimize 	0 1e-6 5000 10000
WARNING: Resetting reneighboring criteria during minimization (../min.cpp:168)
Memory usage per processor = 4.78603 Mbytes
Step TotEng Volume E_pair 
      19   -13.392832    59.366789   -13.392832 
      20   -13.392832    59.366789   -13.392832 
Loop time of 0.000154018 on 1 procs for 1 steps with 4 atoms

0.0% CPU use with 1 MPI tasks x 1 OpenMP threads

Minimization stats:
  Stopping criterion = quadratic factors are zero
  Energy initial, next-to-last, final = 
        -13.3928324667     -13.3928324667     -13.3928324667
  Force two-norm initial, final = 1.53489e-15 1.53489e-15
  Force max component initial, final = 8.32667e-16 8.32667e-16
  Final line search alpha, max atom move = 1 8.32667e-16
  Iterations, force evaluations = 1 2

MPI task timing breakdown:
Section |  min time  |  avg time  |  max time  |%varavg| %total
---------------------------------------------------------------
Pair    | 6.7234e-05 | 6.7234e-05 | 6.7234e-05 |   0.0 | 43.65
Neigh   | 0          | 0          | 0          |   0.0 |  0.00
Comm    | 1.4782e-05 | 1.4782e-05 | 1.4782e-05 |   0.0 |  9.60
Output  | 0          | 0          | 0          |   0.0 |  0.00
Modify  | 0          | 0          | 0          |   0.0 |  0.00
Other   |            | 7.2e-05    |            |       | 46.75

Nlocal:    4 ave 4 max 4 min
Histogram: 1 0 0 0 0 0 0 0 0 0
Nghost:    662 ave 662 max 662 min
Histogram: 1 0 0 0 0 0 0 0 0 0
Neighs:    352 ave 352 max 352 min
Histogram: 1 0 0 0 0 0 0 0 0 0

Total # of neighbors = 352
Ave neighs/atom = 88
Neighbor list builds = 0
Dangerous builds = 0
print           "Vol and Energy = ${vt}	${etev} ${etkcal}"
Vol and Energy = 14.8416971366386	-3.34820811667752 -77.008786683583
next		e
jump		SELF loop1
change_box 	all x scale 1.001 y scale 1.001 z scale 1.001 remap units box
  orthogonal box = (0.070526 0.0724765 0.0724765) to (3.97547 3.97352 3.97352)
  orthogonal box = (0.070526 0.070526 0.0724765) to (3.97547 3.97547 3.97352)
  orthogonal box = (0.070526 0.070526 0.070526) to (3.97547 3.97547 3.97547)
minimize 	0 1e-6 5000 10000
WARNING: Resetting reneighboring criteria during minimization (../min.cpp:168)
Memory usage per processor = 4.78603 Mbytes
Step TotEng Volume E_pair 
      20   -13.408413    59.545067   -13.408413 
      21   -13.408413    59.545067   -13.408413 
Loop time of 0.000173092 on 1 procs for 1 steps with 4 atoms

0.0% CPU use with 1 MPI tasks x 1 OpenMP threads

Minimization stats:
  Stopping criterion = force tolerance
  Energy initial, next-to-last, final = 
         -13.408413152      -13.408413152      -13.408413152
  Force two-norm initial, final = 7.30644e-15 3.29264e-15
  Force max component initial, final = 3.46598e-15 2.38264e-15
  Final line search alpha, max atom move = 1 2.38264e-15
  Iterations, force evaluations = 1 2

MPI task timing breakdown:
Section |  min time  |  avg time  |  max time  |%varavg| %total
---------------------------------------------------------------
Pair    | 6.8188e-05 | 6.8188e-05 | 6.8188e-05 |   0.0 | 39.39
Neigh   | 0          | 0          | 0          |   0.0 |  0.00
Comm    | 1.5736e-05 | 1.5736e-05 | 1.5736e-05 |   0.0 |  9.09
Output  | 0          | 0          | 0          |   0.0 |  0.00
Modify  | 0          | 0          | 0          |   0.0 |  0.00
Other   |            | 8.917e-05  |            |       | 51.52

Nlocal:    4 ave 4 max 4 min
Histogram: 1 0 0 0 0 0 0 0 0 0
Nghost:    662 ave 662 max 662 min
Histogram: 1 0 0 0 0 0 0 0 0 0
Neighs:    352 ave 352 max 352 min
Histogram: 1 0 0 0 0 0 0 0 0 0

Total # of neighbors = 352
Ave neighs/atom = 88
Neighbor list builds = 0
Dangerous builds = 0
print           "Vol and Energy = ${vt}	${etev} ${etkcal}"
Vol and Energy = 14.8862667679816	-3.35210328799798 -77.0983756239536
next		e
jump		SELF loop1
change_box 	all x scale 1.001 y scale 1.001 z scale 1.001 remap units box
  orthogonal box = (0.0685735 0.070526 0.070526) to (3.97743 3.97547 3.97547)
  orthogonal box = (0.0685735 0.0685735 0.070526) to (3.97743 3.97743 3.97547)
  orthogonal box = (0.0685735 0.0685735 0.0685735) to (3.97743 3.97743 3.97743)
minimize 	0 1e-6 5000 10000
WARNING: Resetting reneighboring criteria during minimization (../min.cpp:168)
Memory usage per processor = 4.78603 Mbytes
Step TotEng Volume E_pair 
      21   -13.423386    59.723881   -13.423386 
      22   -13.423386    59.723881   -13.423386 
Loop time of 0.000160933 on 1 procs for 1 steps with 4 atoms

0.0% CPU use with 1 MPI tasks x 1 OpenMP threads

Minimization stats:
  Stopping criterion = force tolerance
  Energy initial, next-to-last, final = 
        -13.4233864591     -13.4233864591     -13.4233864591
  Force two-norm initial, final = 3.66394e-15 2.40474e-15
  Force max component initial, final = 2.25948e-15 1.56906e-15
  Final line search alpha, max atom move = 1 1.56906e-15
  Iterations, force evaluations = 1 2

MPI task timing breakdown:
Section |  min time  |  avg time  |  max time  |%varavg| %total
---------------------------------------------------------------
Pair    | 6.6996e-05 | 6.6996e-05 | 6.6996e-05 |   0.0 | 41.63
Neigh   | 0          | 0          | 0          |   0.0 |  0.00
Comm    | 1.5974e-05 | 1.5974e-05 | 1.5974e-05 |   0.0 |  9.93
Output  | 0          | 0          | 0          |   0.0 |  0.00
Modify  | 0          | 0          | 0          |   0.0 |  0.00
Other   |            | 7.796e-05  |            |       | 48.44

Nlocal:    4 ave 4 max 4 min
Histogram: 1 0 0 0 0 0 0 0 0 0
Nghost:    662 ave 662 max 662 min
Histogram: 1 0 0 0 0 0 0 0 0 0
Neighs:    352 ave 352 max 352 min
Histogram: 1 0 0 0 0 0 0 0 0 0

Total # of neighbors = 352
Ave neighs/atom = 88
Neighbor list builds = 0
Dangerous builds = 0
print           "Vol and Energy = ${vt}	${etev} ${etkcal}"
Vol and Energy = 14.9309702419721	-3.35584661478168 -77.1844721399786
next		e
jump		SELF loop1
change_box 	all x scale 1.001 y scale 1.001 z scale 1.001 remap units box
  orthogonal box = (0.0666191 0.0685735 0.0685735) to (3.97938 3.97743 3.97743)
  orthogonal box = (0.0666191 0.0666191 0.0685735) to (3.97938 3.97938 3.97743)
  orthogonal box = (0.0666191 0.0666191 0.0666191) to (3.97938 3.97938 3.97938)
minimize 	0 1e-6 5000 10000
WARNING: Resetting reneighboring criteria during minimization (../min.cpp:168)
Memory usage per processor = 4.78603 Mbytes
Step TotEng Volume E_pair 
      22   -13.437758    59.903232   -13.437758 
      23   -13.437758    59.903232   -13.437758 
Loop time of 0.000159025 on 1 procs for 1 steps with 4 atoms

0.0% CPU use with 1 MPI tasks x 1 OpenMP threads

Minimization stats:
  Stopping criterion = force tolerance
  Energy initial, next-to-last, final = 
        -13.4377576961     -13.4377576961     -13.4377576961
  Force two-norm initial, final = 8.27645e-15 3.73437e-15
  Force max component initial, final = 3.05311e-15 1.58207e-15
  Final line search alpha, max atom move = 1 1.58207e-15
  Iterations, force evaluations = 1 2

MPI task timing breakdown:
Section |  min time  |  avg time  |  max time  |%varavg| %total
---------------------------------------------------------------
Pair    | 6.6042e-05 | 6.6042e-05 | 6.6042e-05 |   0.0 | 41.53
Neigh   | 0          | 0          | 0          |   0.0 |  0.00
Comm    | 1.359e-05  | 1.359e-05  | 1.359e-05  |   0.0 |  8.55
Output  | 0          | 0          | 0          |   0.0 |  0.00
Modify  | 0          | 0          | 0          |   0.0 |  0.00
Other   |            | 7.939e-05  |            |       | 49.93

Nlocal:    4 ave 4 max 4 min
Histogram: 1 0 0 0 0 0 0 0 0 0
Nghost:    662 ave 662 max 662 min
Histogram: 1 0 0 0 0 0 0 0 0 0
Neighs:    352 ave 352 max 352 min
Histogram: 1 0 0 0 0 0 0 0 0 0

Total # of neighbors = 352
Ave neighs/atom = 88
Neighbor list builds = 0
Dangerous builds = 0
print           "Vol and Energy = ${vt}	${etev} ${etkcal}"
Vol and Energy = 14.9758079605397	-3.35943942401334 -77.2671067523069
next		e
jump		SELF loop1
change_box 	all x scale 1.001 y scale 1.001 z scale 1.001 remap units box
  orthogonal box = (0.0646627 0.0666191 0.0666191) to (3.98134 3.97938 3.97938)
  orthogonal box = (0.0646627 0.0646627 0.0666191) to (3.98134 3.98134 3.97938)
  orthogonal box = (0.0646627 0.0646627 0.0646627) to (3.98134 3.98134 3.98134)
minimize 	0 1e-6 5000 10000
WARNING: Resetting reneighboring criteria during minimization (../min.cpp:168)
Memory usage per processor = 4.78603 Mbytes
Step TotEng Volume E_pair 
      23   -13.451534    60.083121   -13.451534 
      24   -13.451534    60.083121   -13.451534 
Loop time of 0.000149012 on 1 procs for 1 steps with 4 atoms

0.0% CPU use with 1 MPI tasks x 1 OpenMP threads

Minimization stats:
  Stopping criterion = force tolerance
  Energy initial, next-to-last, final = 
        -13.4515341553     -13.4515341553     -13.4515341553
  Force two-norm initial, final = 3.44046e-15 4.30044e-16
  Force max component initial, final = 1.77636e-15 2.8276e-16
  Final line search alpha, max atom move = 1 2.8276e-16
  Iterations, force evaluations = 1 2

MPI task timing breakdown:
Section |  min time  |  avg time  |  max time  |%varavg| %total
---------------------------------------------------------------
Pair    | 6.3658e-05 | 6.3658e-05 | 6.3658e-05 |   0.0 | 42.72
Neigh   | 0          | 0          | 0          |   0.0 |  0.00
Comm    | 1.4544e-05 | 1.4544e-05 | 1.4544e-05 |   0.0 |  9.76
Output  | 0          | 0          | 0          |   0.0 |  0.00
Modify  | 0          | 0          | 0          |   0.0 |  0.00
Other   |            | 7.081e-05  |            |       | 47.52

Nlocal:    4 ave 4 max 4 min
Histogram: 1 0 0 0 0 0 0 0 0 0
Nghost:    662 ave 662 max 662 min
Histogram: 1 0 0 0 0 0 0 0 0 0
Neighs:    352 ave 352 max 352 min
Histogram: 1 0 0 0 0 0 0 0 0 0

Total # of neighbors = 352
Ave neighs/atom = 88
Neighbor list builds = 0
Dangerous builds = 0
print           "Vol and Energy = ${vt}	${etev} ${etkcal}"
Vol and Energy = 15.020780326821	-3.36288353882708 -77.3463213930229
next		e
jump		SELF loop1
change_box 	all x scale 1.001 y scale 1.001 z scale 1.001 remap units box
  orthogonal box = (0.0627043 0.0646627 0.0646627) to (3.9833 3.98134 3.98134)
  orthogonal box = (0.0627043 0.0627043 0.0646627) to (3.9833 3.9833 3.98134)
  orthogonal box = (0.0627043 0.0627043 0.0627043) to (3.9833 3.9833 3.9833)
minimize 	0 1e-6 5000 10000
WARNING: Resetting reneighboring criteria during minimization (../min.cpp:168)
Memory usage per processor = 4.78603 Mbytes
Step TotEng Volume E_pair 
      24   -13.464725    60.263551   -13.464725 
      25   -13.464725    60.263551   -13.464725 
Loop time of 0.000127077 on 1 procs for 1 steps with 4 atoms

0.0% CPU use with 1 MPI tasks x 1 OpenMP threads

Minimization stats:
  Stopping criterion = force tolerance
  Energy initial, next-to-last, final = 
        -13.4647247075     -13.4647247075     -13.4647247075
  Force two-norm initial, final = 4.42506e-15 2.27293e-15
  Force max component initial, final = 1.44502e-15 1.26982e-15
  Final line search alpha, max atom move = 1 1.26982e-15
  Iterations, force evaluations = 1 2

MPI task timing breakdown:
Section |  min time  |  avg time  |  max time  |%varavg| %total
---------------------------------------------------------------
Pair    | 4.5061e-05 | 4.5061e-05 | 4.5061e-05 |   0.0 | 35.46
Neigh   | 0          | 0          | 0          |   0.0 |  0.00
Comm    | 8.8215e-06 | 8.8215e-06 | 8.8215e-06 |   0.0 |  6.94
Output  | 0          | 0          | 0          |   0.0 |  0.00
Modify  | 0          | 0          | 0          |   0.0 |  0.00
Other   |            | 7.319e-05  |            |       | 57.60

Nlocal:    4 ave 4 max 4 min
Histogram: 1 0 0 0 0 0 0 0 0 0
Nghost:    662 ave 662 max 662 min
Histogram: 1 0 0 0 0 0 0 0 0 0
Neighs:    352 ave 352 max 352 min
Histogram: 1 0 0 0 0 0 0 0 0 0

Total # of neighbors = 352
Ave neighs/atom = 88
Neighbor list builds = 0
Dangerous builds = 0
print           "Vol and Energy = ${vt}	${etev} ${etkcal}"
Vol and Energy = 15.0658877451632	-3.36618117687857 -77.422167068207
next		e
jump		SELF loop1
change_box 	all x scale 1.001 y scale 1.001 z scale 1.001 remap units box
  orthogonal box = (0.060744 0.0627043 0.0627043) to (3.98526 3.9833 3.9833)
  orthogonal box = (0.060744 0.060744 0.0627043) to (3.98526 3.98526 3.9833)
  orthogonal box = (0.060744 0.060744 0.060744) to (3.98526 3.98526 3.98526)
minimize 	0 1e-6 5000 10000
WARNING: Resetting reneighboring criteria during minimization (../min.cpp:168)
Memory usage per processor = 4.78603 Mbytes
Step TotEng Volume E_pair 
      25    -13.47734    60.444522    -13.47734 
      26    -13.47734    60.444522    -13.47734 
Loop time of 0.000161886 on 1 procs for 1 steps with 4 atoms

0.0% CPU use with 1 MPI tasks x 1 OpenMP threads

Minimization stats:
  Stopping criterion = force tolerance
  Energy initial, next-to-last, final = 
        -13.4773400797     -13.4773400797     -13.4773400797
  Force two-norm initial, final = 3.44271e-15 2.50809e-15
  Force max component initial, final = 2.85882e-15 1.58207e-15
  Final line search alpha, max atom move = 1 1.58207e-15
  Iterations, force evaluations = 1 2

MPI task timing breakdown:
Section |  min time  |  avg time  |  max time  |%varavg| %total
---------------------------------------------------------------
Pair    | 6.7711e-05 | 6.7711e-05 | 6.7711e-05 |   0.0 | 41.83
Neigh   | 0          | 0          | 0          |   0.0 |  0.00
Comm    | 1.4305e-05 | 1.4305e-05 | 1.4305e-05 |   0.0 |  8.84
Output  | 0          | 0          | 0          |   0.0 |  0.00
Modify  | 0          | 0          | 0          |   0.0 |  0.00
Other   |            | 7.987e-05  |            |       | 49.34

Nlocal:    4 ave 4 max 4 min
Histogram: 1 0 0 0 0 0 0 0 0 0
Nghost:    662 ave 662 max 662 min
Histogram: 1 0 0 0 0 0 0 0 0 0
Neighs:    352 ave 352 max 352 min
Histogram: 1 0 0 0 0 0 0 0 0 0

Total # of neighbors = 352
Ave neighs/atom = 88
Neighbor list builds = 0
Dangerous builds = 0
print           "Vol and Energy = ${vt}	${etev} ${etkcal}"
Vol and Energy = 15.1111306211279	-3.36933501991438 -77.4947054580307
next		e
jump		SELF loop1
change_box 	all x scale 1.001 y scale 1.001 z scale 1.001 remap units box
  orthogonal box = (0.0587818 0.060744 0.060744) to (3.98722 3.98526 3.98526)
  orthogonal box = (0.0587818 0.0587818 0.060744) to (3.98722 3.98722 3.98526)
  orthogonal box = (0.0587818 0.0587818 0.0587818) to (3.98722 3.98722 3.98722)
minimize 	0 1e-6 5000 10000
WARNING: Resetting reneighboring criteria during minimization (../min.cpp:168)
Memory usage per processor = 4.78603 Mbytes
Step TotEng Volume E_pair 
      26   -13.489391    60.626037   -13.489391 
      27   -13.489391    60.626037   -13.489391 
Loop time of 0.00015521 on 1 procs for 1 steps with 4 atoms

0.0% CPU use with 1 MPI tasks x 1 OpenMP threads

Minimization stats:
  Stopping criterion = quadratic factors are zero
  Energy initial, next-to-last, final = 
        -13.4893910578     -13.4893910578     -13.4893910578
  Force two-norm initial, final = 1.74051e-15 1.74051e-15
  Force max component initial, final = 1.16573e-15 1.16573e-15
  Final line search alpha, max atom move = 1 1.16573e-15
  Iterations, force evaluations = 1 2

MPI task timing breakdown:
Section |  min time  |  avg time  |  max time  |%varavg| %total
---------------------------------------------------------------
Pair    | 6.7949e-05 | 6.7949e-05 | 6.7949e-05 |   0.0 | 43.78
Neigh   | 0          | 0          | 0          |   0.0 |  0.00
Comm    | 1.502e-05  | 1.502e-05  | 1.502e-05  |   0.0 |  9.68
Output  | 0          | 0          | 0          |   0.0 |  0.00
Modify  | 0          | 0          | 0          |   0.0 |  0.00
Other   |            | 7.224e-05  |            |       | 46.54

Nlocal:    4 ave 4 max 4 min
Histogram: 1 0 0 0 0 0 0 0 0 0
Nghost:    662 ave 662 max 662 min
Histogram: 1 0 0 0 0 0 0 0 0 0
Neighs:    352 ave 352 max 352 min
Histogram: 1 0 0 0 0 0 0 0 0 0

Total # of neighbors = 352
Ave neighs/atom = 88
Neighbor list builds = 0
Dangerous builds = 0
print           "Vol and Energy = ${vt}	${etev} ${etkcal}"
Vol and Energy = 15.1565093614942	-3.37234776444331 -77.5639985821962
next		e
jump		SELF loop1
change_box 	all x scale 1.001 y scale 1.001 z scale 1.001 remap units box
  orthogonal box = (0.0568176 0.0587818 0.0587818) to (3.98918 3.98722 3.98722)
  orthogonal box = (0.0568176 0.0568176 0.0587818) to (3.98918 3.98918 3.98722)
  orthogonal box = (0.0568176 0.0568176 0.0568176) to (3.98918 3.98918 3.98918)
minimize 	0 1e-6 5000 10000
WARNING: Resetting reneighboring criteria during minimization (../min.cpp:168)
Memory usage per processor = 4.78603 Mbytes
Step TotEng Volume E_pair 
      27    -13.50089    60.808097    -13.50089 
      28    -13.50089    60.808097    -13.50089 
Loop time of 0.000162125 on 1 procs for 1 steps with 4 atoms

0.0% CPU use with 1 MPI tasks x 1 OpenMP threads

Minimization stats:
  Stopping criterion = quadratic factors are zero
  Energy initial, next-to-last, final = 
        -13.5008895156     -13.5008895156     -13.5008895156
  Force two-norm initial, final = 3.08062e-16 3.08062e-16
  Force max component initial, final = 1.66533e-16 1.66533e-16
  Final line search alpha, max atom move = 1 1.66533e-16
  Iterations, force evaluations = 1 2

MPI task timing breakdown:
Section |  min time  |  avg time  |  max time  |%varavg| %total
---------------------------------------------------------------
Pair    | 6.8903e-05 | 6.8903e-05 | 6.8903e-05 |   0.0 | 42.50
Neigh   | 0          | 0          | 0          |   0.0 |  0.00
Comm    | 1.7405e-05 | 1.7405e-05 | 1.7405e-05 |   0.0 | 10.74
Output  | 0          | 0          | 0          |   0.0 |  0.00
Modify  | 0          | 0          | 0          |   0.0 |  0.00
Other   |            | 7.582e-05  |            |       | 46.76

Nlocal:    4 ave 4 max 4 min
Histogram: 1 0 0 0 0 0 0 0 0 0
Nghost:    662 ave 662 max 662 min
Histogram: 1 0 0 0 0 0 0 0 0 0
Neighs:    352 ave 352 max 352 min
Histogram: 1 0 0 0 0 0 0 0 0 0

Total # of neighbors = 352
Ave neighs/atom = 88
Neighbor list builds = 0
Dangerous builds = 0
print           "Vol and Energy = ${vt}	${etev} ${etkcal}"
Vol and Energy = 15.2020243742633	-3.37522237891203 -77.6301147149768
next		e
jump		SELF loop1
change_box 	all x scale 1.001 y scale 1.001 z scale 1.001 remap units box
  orthogonal box = (0.0548514 0.0568176 0.0568176) to (3.99115 3.98918 3.98918)
  orthogonal box = (0.0548514 0.0548514 0.0568176) to (3.99115 3.99115 3.98918)
  orthogonal box = (0.0548514 0.0548514 0.0548514) to (3.99115 3.99115 3.99115)
minimize 	0 1e-6 5000 10000
WARNING: Resetting reneighboring criteria during minimization (../min.cpp:168)
Memory usage per processor = 4.78603 Mbytes
Step TotEng Volume E_pair 
      28   -13.511846    60.990704   -13.511846 
      29   -13.511846    60.990704   -13.511846 
Loop time of 0.000160217 on 1 procs for 1 steps with 4 atoms

0.0% CPU use with 1 MPI tasks x 1 OpenMP threads

Minimization stats:
  Stopping criterion = quadratic factors are zero
  Energy initial, next-to-last, final = 
         -13.511846327      -13.511846327      -13.511846327
  Force two-norm initial, final = 4.9109e-16 4.9109e-16
  Force max component initial, final = 2.25514e-16 2.25514e-16
  Final line search alpha, max atom move = 1 2.25514e-16
  Iterations, force evaluations = 1 2

MPI task timing breakdown:
Section |  min time  |  avg time  |  max time  |%varavg| %total
---------------------------------------------------------------
Pair    | 6.8903e-05 | 6.8903e-05 | 6.8903e-05 |   0.0 | 43.01
Neigh   | 0          | 0          | 0          |   0.0 |  0.00
Comm    | 1.7643e-05 | 1.7643e-05 | 1.7643e-05 |   0.0 | 11.01
Output  | 0          | 0          | 0          |   0.0 |  0.00
Modify  | 0          | 0          | 0          |   0.0 |  0.00
Other   |            | 7.367e-05  |            |       | 45.98

Nlocal:    4 ave 4 max 4 min
Histogram: 1 0 0 0 0 0 0 0 0 0
Nghost:    662 ave 662 max 662 min
Histogram: 1 0 0 0 0 0 0 0 0 0
Neighs:    352 ave 352 max 352 min
Histogram: 1 0 0 0 0 0 0 0 0 0

Total # of neighbors = 352
Ave neighs/atom = 88
Neighbor list builds = 0
Dangerous builds = 0
print           "Vol and Energy = ${vt}	${etev} ${etkcal}"
Vol and Energy = 15.2476760686612	-3.37796158174418 -77.6931163801162
next		e
jump		SELF loop1
change_box 	all x scale 1.001 y scale 1.001 z scale 1.001 remap units box
  orthogonal box = (0.0528832 0.0548514 0.0548514) to (3.99312 3.99115 3.99115)
  orthogonal box = (0.0528832 0.0528832 0.0548514) to (3.99312 3.99312 3.99115)
  orthogonal box = (0.0528832 0.0528832 0.0528832) to (3.99312 3.99312 3.99312)
minimize 	0 1e-6 5000 10000
WARNING: Resetting reneighboring criteria during minimization (../min.cpp:168)
Memory usage per processor = 4.78603 Mbytes
Step TotEng Volume E_pair 
      29   -13.522274    61.173859   -13.522274 
      30   -13.522274    61.173859   -13.522274 
Loop time of 0.000169992 on 1 procs for 1 steps with 4 atoms

0.0% CPU use with 1 MPI tasks x 1 OpenMP threads

Minimization stats:
  Stopping criterion = quadratic factors are zero
  Energy initial, next-to-last, final = 
        -13.5222736622     -13.5222736622     -13.5222736622
  Force two-norm initial, final = 6.33999e-16 6.33999e-16
  Force max component initial, final = 3.19189e-16 3.19189e-16
  Final line search alpha, max atom move = 1 3.19189e-16
  Iterations, force evaluations = 1 2

MPI task timing breakdown:
Section |  min time  |  avg time  |  max time  |%varavg| %total
---------------------------------------------------------------
Pair    | 6.8903e-05 | 6.8903e-05 | 6.8903e-05 |   0.0 | 40.53
Neigh   | 0          | 0          | 0          |   0.0 |  0.00
Comm    | 1.4305e-05 | 1.4305e-05 | 1.4305e-05 |   0.0 |  8.42
Output  | 0          | 0          | 0          |   0.0 |  0.00
Modify  | 0          | 0          | 0          |   0.0 |  0.00
Other   |            | 8.678e-05  |            |       | 51.05

Nlocal:    4 ave 4 max 4 min
Histogram: 1 0 0 0 0 0 0 0 0 0
Nghost:    662 ave 662 max 662 min
Histogram: 1 0 0 0 0 0 0 0 0 0
Neighs:    352 ave 352 max 352 min
Histogram: 1 0 0 0 0 0 0 0 0 0

Total # of neighbors = 352
Ave neighs/atom = 88
Neighbor list builds = 0
Dangerous builds = 0
print           "Vol and Energy = ${vt}	${etev} ${etkcal}"
Vol and Energy = 15.2934648551431	-3.38056841554569 -77.7530735575508
next		e
jump		SELF loop1
change_box 	all x scale 1.001 y scale 1.001 z scale 1.001 remap units box
  orthogonal box = (0.0509131 0.0528832 0.0528832) to (3.99509 3.99312 3.99312)
  orthogonal box = (0.0509131 0.0509131 0.0528832) to (3.99509 3.99509 3.99312)
  orthogonal box = (0.0509131 0.0509131 0.0509131) to (3.99509 3.99509 3.99509)
minimize 	0 1e-6 5000 10000
WARNING: Resetting reneighboring criteria during minimization (../min.cpp:168)
Memory usage per processor = 4.78603 Mbytes
Step TotEng Volume E_pair 
      30   -13.532183    61.357565   -13.532183 
      31   -13.532183    61.357565   -13.532183 
Loop time of 0.000153065 on 1 procs for 1 steps with 4 atoms

0.0% CPU use with 1 MPI tasks x 1 OpenMP threads

Minimization stats:
  Stopping criterion = quadratic factors are zero
  Energy initial, next-to-last, final = 
        -13.5321830377     -13.5321830377     -13.5321830377
  Force two-norm initial, final = 8.02248e-16 8.02248e-16
  Force max component initial, final = 3.73833e-16 3.73833e-16
  Final line search alpha, max atom move = 1 3.73833e-16
  Iterations, force evaluations = 1 2

MPI task timing breakdown:
Section |  min time  |  avg time  |  max time  |%varavg| %total
---------------------------------------------------------------
Pair    | 6.7234e-05 | 6.7234e-05 | 6.7234e-05 |   0.0 | 43.93
Neigh   | 0          | 0          | 0          |   0.0 |  0.00
Comm    | 1.3828e-05 | 1.3828e-05 | 1.3828e-05 |   0.0 |  9.03
Output  | 0          | 0          | 0          |   0.0 |  0.00
Modify  | 0          | 0          | 0          |   0.0 |  0.00
Other   |            | 7.2e-05    |            |       | 47.04

Nlocal:    4 ave 4 max 4 min
Histogram: 1 0 0 0 0 0 0 0 0 0
Nghost:    662 ave 662 max 662 min
Histogram: 1 0 0 0 0 0 0 0 0 0
Neighs:    352 ave 352 max 352 min
Histogram: 1 0 0 0 0 0 0 0 0 0

Total # of neighbors = 352
Ave neighs/atom = 88
Neighbor list builds = 0
Dangerous builds = 0
print           "Vol and Energy = ${vt}	${etev} ${etkcal}"
Vol and Energy = 15.3393911453965	-3.38304575942876 -77.8100524668616
next		e
jump		SELF loop1
change_box 	all x scale 1.001 y scale 1.001 z scale 1.001 remap units box
  orthogonal box = (0.048941 0.0509131 0.0509131) to (3.99706 3.99509 3.99509)
  orthogonal box = (0.048941 0.048941 0.0509131) to (3.99706 3.99706 3.99509)
  orthogonal box = (0.048941 0.048941 0.048941) to (3.99706 3.99706 3.99706)
minimize 	0 1e-6 5000 10000
WARNING: Resetting reneighboring criteria during minimization (../min.cpp:168)
Memory usage per processor = 4.78603 Mbytes
Step TotEng Volume E_pair 
      31   -13.541586    61.541821   -13.541586 
      32   -13.541586    61.541821   -13.541586 
Loop time of 0.000154018 on 1 procs for 1 steps with 4 atoms

0.0% CPU use with 1 MPI tasks x 1 OpenMP threads

Minimization stats:
  Stopping criterion = quadratic factors are zero
  Energy initial, next-to-last, final = 
        -13.5415857619     -13.5415857619     -13.5415857619
  Force two-norm initial, final = 1.70601e-15 1.70601e-15
  Force max component initial, final = 1.05471e-15 1.05471e-15
  Final line search alpha, max atom move = 1 1.05471e-15
  Iterations, force evaluations = 1 2

MPI task timing breakdown:
Section |  min time  |  avg time  |  max time  |%varavg| %total
---------------------------------------------------------------
Pair    | 4.3869e-05 | 4.3869e-05 | 4.3869e-05 |   0.0 | 28.48
Neigh   | 0          | 0          | 0          |   0.0 |  0.00
Comm    | 1.0252e-05 | 1.0252e-05 | 1.0252e-05 |   0.0 |  6.66
Output  | 0          | 0          | 0          |   0.0 |  0.00
Modify  | 0          | 0          | 0          |   0.0 |  0.00
Other   |            | 9.99e-05   |            |       | 64.86

Nlocal:    4 ave 4 max 4 min
Histogram: 1 0 0 0 0 0 0 0 0 0
Nghost:    662 ave 662 max 662 min
Histogram: 1 0 0 0 0 0 0 0 0 0
Neighs:    352 ave 352 max 352 min
Histogram: 1 0 0 0 0 0 0 0 0 0

Total # of neighbors = 352
Ave neighs/atom = 88
Neighbor list builds = 0
Dangerous builds = 0
print           "Vol and Energy = ${vt}	${etev} ${etkcal}"
Vol and Energy = 15.3854553523456	-3.38539644046482 -77.8641181306909
next		e
jump		SELF loop1
change_box 	all x scale 1.001 y scale 1.001 z scale 1.001 remap units box
  orthogonal box = (0.046967 0.048941 0.048941) to (3.99903 3.99706 3.99706)
  orthogonal box = (0.046967 0.046967 0.048941) to (3.99903 3.99903 3.99706)
  orthogonal box = (0.046967 0.046967 0.046967) to (3.99903 3.99903 3.99903)
minimize 	0 1e-6 5000 10000
WARNING: Resetting reneighboring criteria during minimization (../min.cpp:168)
Memory usage per processor = 4.78603 Mbytes
Step TotEng Volume E_pair 
      32   -13.550494    61.726632   -13.550494 
      33   -13.550494    61.726632   -13.550494 
Loop time of 0.000172853 on 1 procs for 1 steps with 4 atoms

0.0% CPU use with 1 MPI tasks x 1 OpenMP threads

Minimization stats:
  Stopping criterion = force tolerance
  Energy initial, next-to-last, final = 
        -13.5504939683     -13.5504939683     -13.5504939683
  Force two-norm initial, final = 5.62285e-15 3.82352e-15
  Force max component initial, final = 2.44249e-15 2.34448e-15
  Final line search alpha, max atom move = 1 2.34448e-15
  Iterations, force evaluations = 1 2

MPI task timing breakdown:
Section |  min time  |  avg time  |  max time  |%varavg| %total
---------------------------------------------------------------
Pair    | 6.6757e-05 | 6.6757e-05 | 6.6757e-05 |   0.0 | 38.62
Neigh   | 0          | 0          | 0          |   0.0 |  0.00
Comm    | 1.3113e-05 | 1.3113e-05 | 1.3113e-05 |   0.0 |  7.59
Output  | 0          | 0          | 0          |   0.0 |  0.00
Modify  | 0          | 0          | 0          |   0.0 |  0.00
Other   |            | 9.298e-05  |            |       | 53.79

Nlocal:    4 ave 4 max 4 min
Histogram: 1 0 0 0 0 0 0 0 0 0
Nghost:    662 ave 662 max 662 min
Histogram: 1 0 0 0 0 0 0 0 0 0
Neighs:    352 ave 352 max 352 min
Histogram: 1 0 0 0 0 0 0 0 0 0

Total # of neighbors = 352
Ave neighs/atom = 88
Neighbor list builds = 0
Dangerous builds = 0
print           "Vol and Energy = ${vt}	${etev} ${etkcal}"
Vol and Energy = 15.4316578901541	-3.38762349206822 -77.9153403175689
next		e
jump		SELF loop1
change_box 	all x scale 1.001 y scale 1.001 z scale 1.001 remap units box
  orthogonal box = (0.0449909 0.046967 0.046967) to (4.00101 3.99903 3.99903)
  orthogonal box = (0.0449909 0.0449909 0.046967) to (4.00101 4.00101 3.99903)
  orthogonal box = (0.0449909 0.0449909 0.0449909) to (4.00101 4.00101 4.00101)
minimize 	0 1e-6 5000 10000
WARNING: Resetting reneighboring criteria during minimization (../min.cpp:168)
Memory usage per processor = 4.78603 Mbytes
Step TotEng Volume E_pair 
      33   -13.558919    61.911997   -13.558919 
      34   -13.558919    61.911997   -13.558919 
Loop time of 0.000149012 on 1 procs for 1 steps with 4 atoms

0.0% CPU use with 1 MPI tasks x 1 OpenMP threads

Minimization stats:
  Stopping criterion = force tolerance
  Energy initial, next-to-last, final = 
        -13.5589190212     -13.5589190212     -13.5589190212
  Force two-norm initial, final = 3.63835e-15 2.30777e-15
  Force max component initial, final = 2.16493e-15 1.86309e-15
  Final line search alpha, max atom move = 1 1.86309e-15
  Iterations, force evaluations = 1 2

MPI task timing breakdown:
Section |  min time  |  avg time  |  max time  |%varavg| %total
---------------------------------------------------------------
Pair    | 6.6757e-05 | 6.6757e-05 | 6.6757e-05 |   0.0 | 44.80
Neigh   | 0          | 0          | 0          |   0.0 |  0.00
Comm    | 1.5259e-05 | 1.5259e-05 | 1.5259e-05 |   0.0 | 10.24
Output  | 0          | 0          | 0          |   0.0 |  0.00
Modify  | 0          | 0          | 0          |   0.0 |  0.00
Other   |            | 6.7e-05    |            |       | 44.96

Nlocal:    4 ave 4 max 4 min
Histogram: 1 0 0 0 0 0 0 0 0 0
Nghost:    662 ave 662 max 662 min
Histogram: 1 0 0 0 0 0 0 0 0 0
Neighs:    352 ave 352 max 352 min
Histogram: 1 0 0 0 0 0 0 0 0 0

Total # of neighbors = 352
Ave neighs/atom = 88
Neighbor list builds = 0
Dangerous builds = 0
print           "Vol and Energy = ${vt}	${etev} ${etkcal}"
Vol and Energy = 15.4779991742299	-3.38972975530475 -77.9637843720093
next		e
jump		SELF loop1
change_box 	all x scale 1.001 y scale 1.001 z scale 1.001 remap units box
  orthogonal box = (0.0430129 0.0449909 0.0449909) to (4.00299 4.00101 4.00101)
  orthogonal box = (0.0430129 0.0430129 0.0449909) to (4.00299 4.00299 4.00101)
  orthogonal box = (0.0430129 0.0430129 0.0430129) to (4.00299 4.00299 4.00299)
minimize 	0 1e-6 5000 10000
WARNING: Resetting reneighboring criteria during minimization (../min.cpp:168)
Memory usage per processor = 4.78603 Mbytes
Step TotEng Volume E_pair 
      34   -13.566872    62.097918   -13.566872 
      35   -13.566872    62.097918   -13.566872 
Loop time of 0.000159025 on 1 procs for 1 steps with 4 atoms

0.0% CPU use with 1 MPI tasks x 1 OpenMP threads

Minimization stats:
  Stopping criterion = quadratic factors are zero
  Energy initial, next-to-last, final = 
        -13.5668723941     -13.5668723941     -13.5668723941
  Force two-norm initial, final = 2.64521e-15 2.64521e-15
  Force max component initial, final = 2.14065e-15 2.14065e-15
  Final line search alpha, max atom move = 1 2.14065e-15
  Iterations, force evaluations = 1 2

MPI task timing breakdown:
Section |  min time  |  avg time  |  max time  |%varavg| %total
---------------------------------------------------------------
Pair    | 4.673e-05  | 4.673e-05  | 4.673e-05  |   0.0 | 29.39
Neigh   | 0          | 0          | 0          |   0.0 |  0.00
Comm    | 7.8678e-06 | 7.8678e-06 | 7.8678e-06 |   0.0 |  4.95
Output  | 0          | 0          | 0          |   0.0 |  0.00
Modify  | 0          | 0          | 0          |   0.0 |  0.00
Other   |            | 0.0001044  |            |       | 65.67

Nlocal:    4 ave 4 max 4 min
Histogram: 1 0 0 0 0 0 0 0 0 0
Nghost:    662 ave 662 max 662 min
Histogram: 1 0 0 0 0 0 0 0 0 0
Neighs:    352 ave 352 max 352 min
Histogram: 1 0 0 0 0 0 0 0 0 0

Total # of neighbors = 352
Ave neighs/atom = 88
Neighbor list builds = 0
Dangerous builds = 0
print           "Vol and Energy = ${vt}	${etev} ${etkcal}"
Vol and Energy = 15.5244796212281	-3.3917180985292 -78.0095162661717
next		e
jump		SELF loop1
change_box 	all x scale 1.001 y scale 1.001 z scale 1.001 remap units box
  orthogonal box = (0.041033 0.0430129 0.0430129) to (4.00497 4.00299 4.00299)
  orthogonal box = (0.041033 0.041033 0.0430129) to (4.00497 4.00497 4.00299)
  orthogonal box = (0.041033 0.041033 0.041033) to (4.00497 4.00497 4.00497)
minimize 	0 1e-6 5000 10000
WARNING: Resetting reneighboring criteria during minimization (../min.cpp:168)
Memory usage per processor = 4.78603 Mbytes
Step TotEng Volume E_pair 
      35   -13.574365    62.284399   -13.574365 
      36   -13.574365    62.284399   -13.574365 
Loop time of 0.000161171 on 1 procs for 1 steps with 4 atoms

0.0% CPU use with 1 MPI tasks x 1 OpenMP threads

Minimization stats:
  Stopping criterion = quadratic factors are zero
  Energy initial, next-to-last, final = 
         -13.574364984      -13.574364984      -13.574364984
  Force two-norm initial, final = 2.33804e-15 2.33804e-15
  Force max component initial, final = 1.95503e-15 1.95503e-15
  Final line search alpha, max atom move = 1 1.95503e-15
  Iterations, force evaluations = 1 2

MPI task timing breakdown:
Section |  min time  |  avg time  |  max time  |%varavg| %total
---------------------------------------------------------------
Pair    | 6.7234e-05 | 6.7234e-05 | 6.7234e-05 |   0.0 | 41.72
Neigh   | 0          | 0          | 0          |   0.0 |  0.00
Comm    | 1.4782e-05 | 1.4782e-05 | 1.4782e-05 |   0.0 |  9.17
Output  | 0          | 0          | 0          |   0.0 |  0.00
Modify  | 0          | 0          | 0          |   0.0 |  0.00
Other   |            | 7.915e-05  |            |       | 49.11

Nlocal:    4 ave 4 max 4 min
Histogram: 1 0 0 0 0 0 0 0 0 0
Nghost:    662 ave 662 max 662 min
Histogram: 1 0 0 0 0 0 0 0 0 0
Neighs:    352 ave 352 max 352 min
Histogram: 1 0 0 0 0 0 0 0 0 0

Total # of neighbors = 352
Ave neighs/atom = 88
Neighbor list builds = 0
Dangerous builds = 0
print           "Vol and Energy = ${vt}	${etev} ${etkcal}"
Vol and Energy = 15.5710996490551	-3.39359124599925 -78.0525986579828
next		e
jump		SELF loop1
change_box 	all x scale 1.001 y scale 1.001 z scale 1.001 remap units box
  orthogonal box = (0.039051 0.041033 0.041033) to (4.00695 4.00497 4.00497)
  orthogonal box = (0.039051 0.039051 0.041033) to (4.00695 4.00695 4.00497)
  orthogonal box = (0.039051 0.039051 0.039051) to (4.00695 4.00695 4.00695)
minimize 	0 1e-6 5000 10000
WARNING: Resetting reneighboring criteria during minimization (../min.cpp:168)
Memory usage per processor = 4.78603 Mbytes
Step TotEng Volume E_pair 
      36   -13.581408    62.471439   -13.581408 
      37   -13.581408    62.471439   -13.581408 
Loop time of 0.000174046 on 1 procs for 1 steps with 4 atoms

2298.2% CPU use with 1 MPI tasks x 1 OpenMP threads

Minimization stats:
  Stopping criterion = force tolerance
  Energy initial, next-to-last, final = 
        -13.5814083245     -13.5814083245     -13.5814083245
  Force two-norm initial, final = 4.21929e-15 2.93138e-15
  Force max component initial, final = 1.34961e-15 1.20216e-15
  Final line search alpha, max atom move = 1 1.20216e-15
  Iterations, force evaluations = 1 2

MPI task timing breakdown:
Section |  min time  |  avg time  |  max time  |%varavg| %total
---------------------------------------------------------------
Pair    | 6.8903e-05 | 6.8903e-05 | 6.8903e-05 |   0.0 | 39.59
Neigh   | 0          | 0          | 0          |   0.0 |  0.00
Comm    | 1.5497e-05 | 1.5497e-05 | 1.5497e-05 |   0.0 |  8.90
Output  | 0          | 0          | 0          |   0.0 |  0.00
Modify  | 0          | 0          | 0          |   0.0 |  0.00
Other   |            | 8.965e-05  |            |       | 51.51

Nlocal:    4 ave 4 max 4 min
Histogram: 1 0 0 0 0 0 0 0 0 0
Nghost:    662 ave 662 max 662 min
Histogram: 1 0 0 0 0 0 0 0 0 0
Neighs:    352 ave 352 max 352 min
Histogram: 1 0 0 0 0 0 0 0 0 0

Total # of neighbors = 352
Ave neighs/atom = 88
Neighbor list builds = 0
Dangerous builds = 0
print           "Vol and Energy = ${vt}	${etev} ${etkcal}"
Vol and Energy = 15.6178596768723	-3.39535208112425 -78.0930978658578
next		e
jump		SELF loop1
change_box 	all x scale 1.001 y scale 1.001 z scale 1.001 remap units box
  orthogonal box = (0.037067 0.039051 0.039051) to (4.00893 4.00695 4.00695)
  orthogonal box = (0.037067 0.037067 0.039051) to (4.00893 4.00893 4.00695)
  orthogonal box = (0.037067 0.037067 0.037067) to (4.00893 4.00893 4.00893)
minimize 	0 1e-6 5000 10000
WARNING: Resetting reneighboring criteria during minimization (../min.cpp:168)
Memory usage per processor = 4.78603 Mbytes
Step TotEng Volume E_pair 
      37   -13.588013    62.659041   -13.588013 
      38   -13.588013    62.659041   -13.588013 
Loop time of 0.000159025 on 1 procs for 1 steps with 4 atoms

0.0% CPU use with 1 MPI tasks x 1 OpenMP threads

Minimization stats:
  Stopping criterion = quadratic factors are zero
  Energy initial, next-to-last, final = 
        -13.5880128314     -13.5880128314     -13.5880128314
  Force two-norm initial, final = 2.63098e-15 2.63098e-15
  Force max component initial, final = 1.18308e-15 1.18308e-15
  Final line search alpha, max atom move = 1 1.18308e-15
  Iterations, force evaluations = 1 2

MPI task timing breakdown:
Section |  min time  |  avg time  |  max time  |%varavg| %total
---------------------------------------------------------------
Pair    | 6.9141e-05 | 6.9141e-05 | 6.9141e-05 |   0.0 | 43.48
Neigh   | 0          | 0          | 0          |   0.0 |  0.00
Comm    | 1.6928e-05 | 1.6928e-05 | 1.6928e-05 |   0.0 | 10.64
Output  | 0          | 0          | 0          |   0.0 |  0.00
Modify  | 0          | 0          | 0          |   0.0 |  0.00
Other   |            | 7.296e-05  |            |       | 45.88

Nlocal:    4 ave 4 max 4 min
Histogram: 1 0 0 0 0 0 0 0 0 0
Nghost:    662 ave 662 max 662 min
Histogram: 1 0 0 0 0 0 0 0 0 0
Neighs:    352 ave 352 max 352 min
Histogram: 1 0 0 0 0 0 0 0 0 0

Total # of neighbors = 352
Ave neighs/atom = 88
Neighbor list builds = 0
Dangerous builds = 0
print           "Vol and Energy = ${vt}	${etev} ${etkcal}"
Vol and Energy = 15.6647601250998	-3.39700320784397 -78.1310737804113
next		e
jump		SELF loop1
change_box 	all x scale 1.001 y scale 1.001 z scale 1.001 remap units box
  orthogonal box = (0.0350811 0.037067 0.037067) to (4.01092 4.00893 4.00893)
  orthogonal box = (0.0350811 0.0350811 0.037067) to (4.01092 4.01092 4.00893)
  orthogonal box = (0.0350811 0.0350811 0.0350811) to (4.01092 4.01092 4.01092)
minimize 	0 1e-6 5000 10000
WARNING: Resetting reneighboring criteria during minimization (../min.cpp:168)
Memory usage per processor = 4.78603 Mbytes
Step TotEng Volume E_pair 
      38   -13.594189    62.847206   -13.594189 
      39   -13.594189    62.847206   -13.594189 
Loop time of 0.000196934 on 1 procs for 1 steps with 4 atoms

0.0% CPU use with 1 MPI tasks x 1 OpenMP threads

Minimization stats:
  Stopping criterion = quadratic factors are zero
  Energy initial, next-to-last, final = 
         -13.594189465      -13.594189465      -13.594189465
  Force two-norm initial, final = 1.69269e-16 1.69269e-16
  Force max component initial, final = 1.07553e-16 1.07553e-16
  Final line search alpha, max atom move = 1 1.07553e-16
  Iterations, force evaluations = 1 2

MPI task timing breakdown:
Section |  min time  |  avg time  |  max time  |%varavg| %total
---------------------------------------------------------------
Pair    | 6.3896e-05 | 6.3896e-05 | 6.3896e-05 |   0.0 | 32.45
Neigh   | 0          | 0          | 0          |   0.0 |  0.00
Comm    | 1.5259e-05 | 1.5259e-05 | 1.5259e-05 |   0.0 |  7.75
Output  | 0          | 0          | 0          |   0.0 |  0.00
Modify  | 0          | 0          | 0          |   0.0 |  0.00
Other   |            | 0.0001178  |            |       | 59.81

Nlocal:    4 ave 4 max 4 min
Histogram: 1 0 0 0 0 0 0 0 0 0
Nghost:    662 ave 662 max 662 min
Histogram: 1 0 0 0 0 0 0 0 0 0
Neighs:    352 ave 352 max 352 min
Histogram: 1 0 0 0 0 0 0 0 0 0

Total # of neighbors = 352
Ave neighs/atom = 88
Neighbor list builds = 0
Dangerous builds = 0
print           "Vol and Energy = ${vt}	${etev} ${etkcal}"
Vol and Energy = 15.7118014154203	-3.39854736626175 -78.1665894240202
next		e
jump		SELF loop1
change_box 	all x scale 1.001 y scale 1.001 z scale 1.001 remap units box
  orthogonal box = (0.0330932 0.0350811 0.0350811) to (4.01291 4.01092 4.01092)
  orthogonal box = (0.0330932 0.0330932 0.0350811) to (4.01291 4.01291 4.01092)
  orthogonal box = (0.0330932 0.0330932 0.0330932) to (4.01291 4.01291 4.01291)
minimize 	0 1e-6 5000 10000
WARNING: Resetting reneighboring criteria during minimization (../min.cpp:168)
Memory usage per processor = 4.78603 Mbytes
Step TotEng Volume E_pair 
      39   -13.599949    63.035936   -13.599949 
      40   -13.599949    63.035936   -13.599949 
Loop time of 0.000168085 on 1 procs for 1 steps with 4 atoms

0.0% CPU use with 1 MPI tasks x 1 OpenMP threads

Minimization stats:
  Stopping criterion = force tolerance
  Energy initial, next-to-last, final = 
        -13.5999489072     -13.5999489072     -13.5999489072
  Force two-norm initial, final = 6.62336e-15 3.9354e-15
  Force max component initial, final = 2.47025e-15 2.7053e-15
  Final line search alpha, max atom move = 1 2.7053e-15
  Iterations, force evaluations = 1 2

MPI task timing breakdown:
Section |  min time  |  avg time  |  max time  |%varavg| %total
---------------------------------------------------------------
Pair    | 6.3896e-05 | 6.3896e-05 | 6.3896e-05 |   0.0 | 38.01
Neigh   | 0          | 0          | 0          |   0.0 |  0.00
Comm    | 1.502e-05  | 1.502e-05  | 1.502e-05  |   0.0 |  8.94
Output  | 0          | 0          | 0          |   0.0 |  0.00
Modify  | 0          | 0          | 0          |   0.0 |  0.00
Other   |            | 8.917e-05  |            |       | 53.05

Nlocal:    4 ave 4 max 4 min
Histogram: 1 0 0 0 0 0 0 0 0 0
Nghost:    662 ave 662 max 662 min
Histogram: 1 0 0 0 0 0 0 0 0 0
Neighs:    352 ave 352 max 352 min
Histogram: 1 0 0 0 0 0 0 0 0 0

Total # of neighbors = 352
Ave neighs/atom = 88
Neighbor list builds = 0
Dangerous builds = 0
print           "Vol and Energy = ${vt}	${etev} ${etkcal}"
Vol and Energy = 15.7589839707826	-3.39998722680871 -78.1997062166004
next		e
jump		SELF loop1
change_box 	all x scale 1.001 y scale 1.001 z scale 1.001 remap units box
  orthogonal box = (0.0311033 0.0330932 0.0330932) to (4.0149 4.01291 4.01291)
  orthogonal box = (0.0311033 0.0311033 0.0330932) to (4.0149 4.0149 4.01291)
  orthogonal box = (0.0311033 0.0311033 0.0311033) to (4.0149 4.0149 4.0149)
minimize 	0 1e-6 5000 10000
WARNING: Resetting reneighboring criteria during minimization (../min.cpp:168)
Memory usage per processor = 4.78603 Mbytes
Step TotEng Volume E_pair 
      40   -13.605301    63.225233   -13.605301 
      41   -13.605301    63.225233   -13.605301 
Loop time of 0.000144958 on 1 procs for 1 steps with 4 atoms

0.0% CPU use with 1 MPI tasks x 1 OpenMP threads

Minimization stats:
  Stopping criterion = quadratic factors are zero
  Energy initial, next-to-last, final = 
        -13.6053005554     -13.6053005554     -13.6053005554
  Force two-norm initial, final = 2.70658e-15 2.70658e-15
  Force max component initial, final = 1.13798e-15 1.13798e-15
  Final line search alpha, max atom move = 1 1.13798e-15
  Iterations, force evaluations = 1 2

MPI task timing breakdown:
Section |  min time  |  avg time  |  max time  |%varavg| %total
---------------------------------------------------------------
Pair    | 4.9829e-05 | 4.9829e-05 | 4.9829e-05 |   0.0 | 34.38
Neigh   | 0          | 0          | 0          |   0.0 |  0.00
Comm    | 1.1444e-05 | 1.1444e-05 | 1.1444e-05 |   0.0 |  7.89
Output  | 0          | 0          | 0          |   0.0 |  0.00
Modify  | 0          | 0          | 0          |   0.0 |  0.00
Other   |            | 8.368e-05  |            |       | 57.73

Nlocal:    4 ave 4 max 4 min
Histogram: 1 0 0 0 0 0 0 0 0 0
Nghost:    662 ave 662 max 662 min
Histogram: 1 0 0 0 0 0 0 0 0 0
Neighs:    352 ave 352 max 352 min
Histogram: 1 0 0 0 0 0 0 0 0 0

Total # of neighbors = 352
Ave neighs/atom = 88
Neighbor list builds = 0
Dangerous builds = 0
print           "Vol and Energy = ${vt}	${etev} ${etkcal}"
Vol and Energy = 15.8063082154058	-3.40132513884708 -78.2304781934829
next		e
jump		SELF loop1
change_box 	all x scale 1.001 y scale 1.001 z scale 1.001 remap units box
  orthogonal box = (0.0291114 0.0311033 0.0311033) to (4.01689 4.0149 4.0149)
  orthogonal box = (0.0291114 0.0291114 0.0311033) to (4.01689 4.01689 4.0149)
  orthogonal box = (0.0291114 0.0291114 0.0291114) to (4.01689 4.01689 4.01689)
minimize 	0 1e-6 5000 10000
[...]
  Energy initial, next-to-last, final = 
        -13.4282038955     -13.4282038955     -13.4282038955
  Force two-norm initial, final = 2.62237e-15 2.62237e-15
  Force max component initial, final = 1.86309e-15 1.86309e-15
  Final line search alpha, max atom move = 1 1.86309e-15
  Iterations, force evaluations = 1 2

MPI task timing breakdown:
Section |  min time  |  avg time  |  max time  |%varavg| %total
---------------------------------------------------------------
Pair    | 3.5763e-05 | 3.5763e-05 | 3.5763e-05 |   0.0 | 20.92
Neigh   | 0          | 0          | 0          |   0.0 |  0.00
Comm    | 1.1444e-05 | 1.1444e-05 | 1.1444e-05 |   0.0 |  6.69
Output  | 0          | 0          | 0          |   0.0 |  0.00
Modify  | 0          | 0          | 0          |   0.0 |  0.00
Other   |            | 0.0001237  |            |       | 72.38

Nlocal:    4 ave 4 max 4 min
Histogram: 1 0 0 0 0 0 0 0 0 0
Nghost:    662 ave 662 max 662 min
Histogram: 1 0 0 0 0 0 0 0 0 0
Neighs:    280 ave 280 max 280 min
Histogram: 1 0 0 0 0 0 0 0 0 0

Total # of neighbors = 280
Ave neighs/atom = 70
Neighbor list builds = 0
Dangerous builds = 0
print           "Vol and Energy = ${vt}	${etev} ${etkcal}"
Vol and Energy = 18.6403142766491	-3.35705097386854 -77.2121723989763
next		e
jump		SELF loop1
change_box 	all x scale 1.001 y scale 1.001 z scale 1.001 remap units box
  orthogonal box = (-0.0835664 -0.081462 -0.081462) to (4.12957 4.12746 4.12746)
  orthogonal box = (-0.0835664 -0.0835664 -0.081462) to (4.12957 4.12957 4.12746)
  orthogonal box = (-0.0835664 -0.0835664 -0.0835664) to (4.12957 4.12957 4.12957)
minimize 	0 1e-6 5000 10000
WARNING: Resetting reneighboring criteria during minimization (../min.cpp:168)
Memory usage per processor = 4.78603 Mbytes
Step TotEng Volume E_pair 
      96   -13.417102    74.785165   -13.417102 
      97   -13.417102    74.785165   -13.417102 
Loop time of 0.000123024 on 1 procs for 1 steps with 4 atoms

0.0% CPU use with 1 MPI tasks x 1 OpenMP threads

Minimization stats:
  Stopping criterion = quadratic factors are zero
  Energy initial, next-to-last, final = 
        -13.4171019427     -13.4171019427     -13.4171019427
  Force two-norm initial, final = 1.81063e-16 1.81063e-16
  Force max component initial, final = 1.249e-16 1.249e-16
  Final line search alpha, max atom move = 1 1.249e-16
  Iterations, force evaluations = 1 2

MPI task timing breakdown:
Section |  min time  |  avg time  |  max time  |%varavg| %total
---------------------------------------------------------------
Pair    | 3.5048e-05 | 3.5048e-05 | 3.5048e-05 |   0.0 | 28.49
Neigh   | 0          | 0          | 0          |   0.0 |  0.00
Comm    | 1.1206e-05 | 1.1206e-05 | 1.1206e-05 |   0.0 |  9.11
Output  | 0          | 0          | 0          |   0.0 |  0.00
Modify  | 0          | 0          | 0          |   0.0 |  0.00
Other   |            | 7.677e-05  |            |       | 62.40

Nlocal:    4 ave 4 max 4 min
Histogram: 1 0 0 0 0 0 0 0 0 0
Nghost:    662 ave 662 max 662 min
Histogram: 1 0 0 0 0 0 0 0 0 0
Neighs:    280 ave 280 max 280 min
Histogram: 1 0 0 0 0 0 0 0 0 0

Total # of neighbors = 280
Ave neighs/atom = 70
Neighbor list builds = 0
Dangerous builds = 0
print           "Vol and Energy = ${vt}	${etev} ${etkcal}"
Vol and Energy = 18.6962911590622	-3.35427548566957 -77.1483361704001
next		e
jump		SELF loop1
change_box 	all x scale 1.001 y scale 1.001 z scale 1.001 remap units box
  orthogonal box = (-0.085673 -0.0835664 -0.0835664) to (4.13167 4.12957 4.12957)
  orthogonal box = (-0.085673 -0.085673 -0.0835664) to (4.13167 4.13167 4.12957)
  orthogonal box = (-0.085673 -0.085673 -0.085673) to (4.13167 4.13167 4.13167)
minimize 	0 1e-6 5000 10000
WARNING: Resetting reneighboring criteria during minimization (../min.cpp:168)
Memory usage per processor = 4.78603 Mbytes
Step TotEng Volume E_pair 
      97   -13.405716    75.009745   -13.405716 
      98   -13.405716    75.009745   -13.405716 
Loop time of 0.000103951 on 1 procs for 1 steps with 4 atoms

0.0% CPU use with 1 MPI tasks x 1 OpenMP threads

Minimization stats:
  Stopping criterion = quadratic factors are zero
  Energy initial, next-to-last, final = 
         -13.405716433      -13.405716433      -13.405716433
  Force two-norm initial, final = 2.4733e-16 2.4733e-16
  Force max component initial, final = 1.66533e-16 1.66533e-16
  Final line search alpha, max atom move = 1 1.66533e-16
  Iterations, force evaluations = 1 2

MPI task timing breakdown:
Section |  min time  |  avg time  |  max time  |%varavg| %total
---------------------------------------------------------------
Pair    | 3.8862e-05 | 3.8862e-05 | 3.8862e-05 |   0.0 | 37.39
Neigh   | 0          | 0          | 0          |   0.0 |  0.00
Comm    | 1.1206e-05 | 1.1206e-05 | 1.1206e-05 |   0.0 | 10.78
Output  | 0          | 0          | 0          |   0.0 |  0.00
Modify  | 0          | 0          | 0          |   0.0 |  0.00
Other   |            | 5.388e-05  |            |       | 51.83

Nlocal:    4 ave 4 max 4 min
Histogram: 1 0 0 0 0 0 0 0 0 0
Nghost:    662 ave 662 max 662 min
Histogram: 1 0 0 0 0 0 0 0 0 0
Neighs:    280 ave 280 max 280 min
Histogram: 1 0 0 0 0 0 0 0 0 0

Total # of neighbors = 280
Ave neighs/atom = 70
Neighbor list builds = 0
Dangerous builds = 0
print           "Vol and Energy = ${vt}	${etev} ${etkcal}"
Vol and Energy = 18.7524361401092	-3.35142910825112 -77.0828694897758
next		e
jump		SELF loop1
change_box 	all x scale 1.001 y scale 1.001 z scale 1.001 remap units box
  orthogonal box = (-0.0877817 -0.085673 -0.085673) to (4.13378 4.13167 4.13167)
  orthogonal box = (-0.0877817 -0.0877817 -0.085673) to (4.13378 4.13378 4.13167)
  orthogonal box = (-0.0877817 -0.0877817 -0.0877817) to (4.13378 4.13378 4.13378)
minimize 	0 1e-6 5000 10000
WARNING: Resetting reneighboring criteria during minimization (../min.cpp:168)
Memory usage per processor = 4.78603 Mbytes
Step TotEng Volume E_pair 
      98   -13.394049    75.234999   -13.394049 
      99   -13.394049    75.234999   -13.394049 
Loop time of 0.000121117 on 1 procs for 1 steps with 4 atoms

0.0% CPU use with 1 MPI tasks x 1 OpenMP threads

Minimization stats:
  Stopping criterion = quadratic factors are zero
  Energy initial, next-to-last, final = 
        -13.3940485898     -13.3940485898     -13.3940485898
  Force two-norm initial, final = 2.07218e-16 2.07218e-16
  Force max component initial, final = 1.2837e-16 1.2837e-16
  Final line search alpha, max atom move = 1 1.2837e-16
  Iterations, force evaluations = 1 2

MPI task timing breakdown:
Section |  min time  |  avg time  |  max time  |%varavg| %total
---------------------------------------------------------------
Pair    | 3.7909e-05 | 3.7909e-05 | 3.7909e-05 |   0.0 | 31.30
Neigh   | 0          | 0          | 0          |   0.0 |  0.00
Comm    | 1.2398e-05 | 1.2398e-05 | 1.2398e-05 |   0.0 | 10.24
Output  | 0          | 0          | 0          |   0.0 |  0.00
Modify  | 0          | 0          | 0          |   0.0 |  0.00
Other   |            | 7.081e-05  |            |       | 58.46

Nlocal:    4 ave 4 max 4 min
Histogram: 1 0 0 0 0 0 0 0 0 0
Nghost:    662 ave 662 max 662 min
Histogram: 1 0 0 0 0 0 0 0 0 0
Neighs:    280 ave 280 max 280 min
Histogram: 1 0 0 0 0 0 0 0 0 0

Total # of neighbors = 280
Ave neighs/atom = 70
Neighbor list builds = 0
Dangerous builds = 0
print           "Vol and Energy = ${vt}	${etev} ${etkcal}"
Vol and Energy = 18.8087497245903	-3.34851214746034 -77.0157793915878
next		e
jump		SELF loop1
change_box 	all x scale 1.001 y scale 1.001 z scale 1.001 remap units box
  orthogonal box = (-0.0898924 -0.0877817 -0.0877817) to (4.13589 4.13378 4.13378)
  orthogonal box = (-0.0898924 -0.0898924 -0.0877817) to (4.13589 4.13589 4.13378)
  orthogonal box = (-0.0898924 -0.0898924 -0.0898924) to (4.13589 4.13589 4.13589)
minimize 	0 1e-6 5000 10000
WARNING: Resetting reneighboring criteria during minimization (../min.cpp:168)
Memory usage per processor = 4.78603 Mbytes
Step TotEng Volume E_pair 
      99   -13.382101     75.46093   -13.382101 
     100   -13.382101     75.46093   -13.382101 
Loop time of 0.000181913 on 1 procs for 1 steps with 4 atoms

0.0% CPU use with 1 MPI tasks x 1 OpenMP threads

Minimization stats:
  Stopping criterion = quadratic factors are zero
  Energy initial, next-to-last, final = 
        -13.3821005358     -13.3821005358     -13.3821005358
  Force two-norm initial, final = 2.67931e-16 2.67931e-16
  Force max component initial, final = 1.45717e-16 1.45717e-16
  Final line search alpha, max atom move = 1 1.45717e-16
  Iterations, force evaluations = 1 2

MPI task timing breakdown:
Section |  min time  |  avg time  |  max time  |%varavg| %total
---------------------------------------------------------------
Pair    | 3.4809e-05 | 3.4809e-05 | 3.4809e-05 |   0.0 | 19.13
Neigh   | 0          | 0          | 0          |   0.0 |  0.00
Comm    | 1.1206e-05 | 1.1206e-05 | 1.1206e-05 |   0.0 |  6.16
Output  | 0          | 0          | 0          |   0.0 |  0.00
Modify  | 0          | 0          | 0          |   0.0 |  0.00
Other   |            | 0.0001359  |            |       | 74.71

Nlocal:    4 ave 4 max 4 min
Histogram: 1 0 0 0 0 0 0 0 0 0
Nghost:    662 ave 662 max 662 min
Histogram: 1 0 0 0 0 0 0 0 0 0
Neighs:    280 ave 280 max 280 min
Histogram: 1 0 0 0 0 0 0 0 0 0

Total # of neighbors = 280
Ave neighs/atom = 70
Neighbor list builds = 0
Dangerous builds = 0
print           "Vol and Energy = ${vt}	${etev} ${etkcal}"
Vol and Energy = 18.865232418822	-3.34552513395086 -76.9470780808697
next		e
jump		SELF loop1
change_box 	all x scale 1.001 y scale 1.001 z scale 1.001 remap units box
  orthogonal box = (-0.0920053 -0.0898924 -0.0898924) to (4.13801 4.13589 4.13589)
  orthogonal box = (-0.0920053 -0.0920053 -0.0898924) to (4.13801 4.13801 4.13589)
  orthogonal box = (-0.0920053 -0.0920053 -0.0920053) to (4.13801 4.13801 4.13801)
minimize 	0 1e-6 5000 10000
WARNING: Resetting reneighboring criteria during minimization (../min.cpp:168)
Memory usage per processor = 4.78603 Mbytes
Step TotEng Volume E_pair 
     100   -13.369874    75.687539   -13.369874 
     101   -13.369874    75.687539   -13.369874 
Loop time of 0.000136852 on 1 procs for 1 steps with 4 atoms

0.0% CPU use with 1 MPI tasks x 1 OpenMP threads

Minimization stats:
  Stopping criterion = quadratic factors are zero
  Energy initial, next-to-last, final = 
        -13.3698741215     -13.3698741215     -13.3698741215
  Force two-norm initial, final = 4.9544e-16 4.9544e-16
  Force max component initial, final = 2.98372e-16 2.98372e-16
  Final line search alpha, max atom move = 1 2.98372e-16
  Iterations, force evaluations = 1 2

MPI task timing breakdown:
Section |  min time  |  avg time  |  max time  |%varavg| %total
---------------------------------------------------------------
Pair    | 3.4809e-05 | 3.4809e-05 | 3.4809e-05 |   0.0 | 25.44
Neigh   | 0          | 0          | 0          |   0.0 |  0.00
Comm    | 1.0014e-05 | 1.0014e-05 | 1.0014e-05 |   0.0 |  7.32
Output  | 0          | 0          | 0          |   0.0 |  0.00
Modify  | 0          | 0          | 0          |   0.0 |  0.00
Other   |            | 9.203e-05  |            |       | 67.25

Nlocal:    4 ave 4 max 4 min
Histogram: 1 0 0 0 0 0 0 0 0 0
Nghost:    662 ave 662 max 662 min
Histogram: 1 0 0 0 0 0 0 0 0 0
Neighs:    280 ave 280 max 280 min
Histogram: 1 0 0 0 0 0 0 0 0 0

Total # of neighbors = 280
Ave neighs/atom = 70
Neighbor list builds = 0
Dangerous builds = 0
print           "Vol and Energy = ${vt}	${etev} ${etkcal}"
Vol and Energy = 18.921884730641	-3.34246853037803 -76.8767761986946
next		e
jump		SELF loop1
change_box 	all x scale 1.001 y scale 1.001 z scale 1.001 remap units box
  orthogonal box = (-0.0941203 -0.0920053 -0.0920053) to (4.14012 4.13801 4.13801)
  orthogonal box = (-0.0941203 -0.0941203 -0.0920053) to (4.14012 4.14012 4.13801)
  orthogonal box = (-0.0941203 -0.0941203 -0.0941203) to (4.14012 4.14012 4.14012)
minimize 	0 1e-6 5000 10000
WARNING: Resetting reneighboring criteria during minimization (../min.cpp:168)
Memory usage per processor = 4.78603 Mbytes
Step TotEng Volume E_pair 
     101   -13.357371    75.914829   -13.357371 
     102   -13.357371    75.914829   -13.357371 
Loop time of 0.000115871 on 1 procs for 1 steps with 4 atoms

0.0% CPU use with 1 MPI tasks x 1 OpenMP threads

Minimization stats:
  Stopping criterion = quadratic factors are zero
  Energy initial, next-to-last, final = 
        -13.3573711536     -13.3573711536     -13.3573711536
  Force two-norm initial, final = 1.63302e-15 1.63302e-15
  Force max component initial, final = 8.7777e-16 8.7777e-16
  Final line search alpha, max atom move = 1 8.7777e-16
  Iterations, force evaluations = 1 2

MPI task timing breakdown:
Section |  min time  |  avg time  |  max time  |%varavg| %total
---------------------------------------------------------------
Pair    | 3.4094e-05 | 3.4094e-05 | 3.4094e-05 |   0.0 | 29.42
Neigh   | 0          | 0          | 0          |   0.0 |  0.00
Comm    | 1.0967e-05 | 1.0967e-05 | 1.0967e-05 |   0.0 |  9.47
Output  | 0          | 0          | 0          |   0.0 |  0.00
Modify  | 0          | 0          | 0          |   0.0 |  0.00
Other   |            | 7.081e-05  |            |       | 61.11

Nlocal:    4 ave 4 max 4 min
Histogram: 1 0 0 0 0 0 0 0 0 0
Nghost:    662 ave 662 max 662 min
Histogram: 1 0 0 0 0 0 0 0 0 0
Neighs:    280 ave 280 max 280 min
Histogram: 1 0 0 0 0 0 0 0 0 0

Total # of neighbors = 280
Ave neighs/atom = 70
Neighbor list builds = 0
Dangerous builds = 0
print           "Vol and Energy = ${vt}	${etev} ${etkcal}"
Vol and Energy = 18.978707169409	-3.33934278840565 -76.8048841333301
next		e
jump		SELF loop1
change_box 	all x scale 1.001 y scale 1.001 z scale 1.001 remap units box
  orthogonal box = (-0.0962375 -0.0941203 -0.0941203) to (4.14224 4.14012 4.14012)
  orthogonal box = (-0.0962375 -0.0962375 -0.0941203) to (4.14224 4.14224 4.14012)
  orthogonal box = (-0.0962375 -0.0962375 -0.0962375) to (4.14224 4.14224 4.14224)
minimize 	0 1e-6 5000 10000
WARNING: Resetting reneighboring criteria during minimization (../min.cpp:168)
Memory usage per processor = 4.78603 Mbytes
Step TotEng Volume E_pair 
     102   -13.344594    76.142801   -13.344594 
     103   -13.344594    76.142801   -13.344594 
Loop time of 0.000136852 on 1 procs for 1 steps with 4 atoms

0.0% CPU use with 1 MPI tasks x 1 OpenMP threads

Minimization stats:
  Stopping criterion = quadratic factors are zero
  Energy initial, next-to-last, final = 
        -13.3445941986     -13.3445941986     -13.3445941986
  Force two-norm initial, final = 2.5266e-15 2.5266e-15
  Force max component initial, final = 1.2039e-15 1.2039e-15
  Final line search alpha, max atom move = 1 1.2039e-15
  Iterations, force evaluations = 1 2

MPI task timing breakdown:
Section |  min time  |  avg time  |  max time  |%varavg| %total
---------------------------------------------------------------
Pair    | 3.4332e-05 | 3.4332e-05 | 3.4332e-05 |   0.0 | 25.09
Neigh   | 0          | 0          | 0          |   0.0 |  0.00
Comm    | 8.8215e-06 | 8.8215e-06 | 8.8215e-06 |   0.0 |  6.45
Output  | 0          | 0          | 0          |   0.0 |  0.00
Modify  | 0          | 0          | 0          |   0.0 |  0.00
Other   |            | 9.37e-05   |            |       | 68.47

Nlocal:    4 ave 4 max 4 min
Histogram: 1 0 0 0 0 0 0 0 0 0
Nghost:    662 ave 662 max 662 min
Histogram: 1 0 0 0 0 0 0 0 0 0
Neighs:    280 ave 280 max 280 min
Histogram: 1 0 0 0 0 0 0 0 0 0

Total # of neighbors = 280
Ave neighs/atom = 70
Neighbor list builds = 0
Dangerous builds = 0
print           "Vol and Energy = ${vt}	${etev} ${etkcal}"
Vol and Energy = 19.0357002460174	-3.33614854963888 -76.7314166416943
next		e
jump		SELF loop1
change_box 	all x scale 1.001 y scale 1.001 z scale 1.001 remap units box
  orthogonal box = (-0.0983567 -0.0962375 -0.0962375) to (4.14436 4.14224 4.14224)
  orthogonal box = (-0.0983567 -0.0983567 -0.0962375) to (4.14436 4.14436 4.14224)
  orthogonal box = (-0.0983567 -0.0983567 -0.0983567) to (4.14436 4.14436 4.14436)
minimize 	0 1e-6 5000 10000
WARNING: Resetting reneighboring criteria during minimization (../min.cpp:168)
Memory usage per processor = 4.78603 Mbytes
Step TotEng Volume E_pair 
     103   -13.331546    76.371458   -13.331546 
     104   -13.331546    76.371458   -13.331546 
Loop time of 0.000118017 on 1 procs for 1 steps with 4 atoms

0.0% CPU use with 1 MPI tasks x 1 OpenMP threads

Minimization stats:
  Stopping criterion = quadratic factors are zero
  Energy initial, next-to-last, final = 
        -13.3315461958     -13.3315461958     -13.3315461958
  Force two-norm initial, final = 1.59435e-15 1.59435e-15
  Force max component initial, final = 7.07767e-16 7.07767e-16
  Final line search alpha, max atom move = 1 7.07767e-16
  Iterations, force evaluations = 1 2

MPI task timing breakdown:
Section |  min time  |  avg time  |  max time  |%varavg| %total
---------------------------------------------------------------
Pair    | 3.3855e-05 | 3.3855e-05 | 3.3855e-05 |   0.0 | 28.69
Neigh   | 0          | 0          | 0          |   0.0 |  0.00
Comm    | 8.8215e-06 | 8.8215e-06 | 8.8215e-06 |   0.0 |  7.47
Output  | 0          | 0          | 0          |   0.0 |  0.00
Modify  | 0          | 0          | 0          |   0.0 |  0.00
Other   |            | 7.534e-05  |            |       | 63.84

Nlocal:    4 ave 4 max 4 min
Histogram: 1 0 0 0 0 0 0 0 0 0
Nghost:    662 ave 662 max 662 min
Histogram: 1 0 0 0 0 0 0 0 0 0
Neighs:    280 ave 280 max 280 min
Histogram: 1 0 0 0 0 0 0 0 0 0

Total # of neighbors = 280
Ave neighs/atom = 70
Neighbor list builds = 0
Dangerous builds = 0
print           "Vol and Energy = ${vt}	${etev} ${etkcal}"
Vol and Energy = 19.0928644728919	-3.33288654895438 -76.6563906259506
next		e
jump		SELF loop1
change_box 	all x scale 1.001 y scale 1.001 z scale 1.001 remap units box
  orthogonal box = (-0.100478 -0.0983567 -0.0983567) to (4.14648 4.14436 4.14436)
  orthogonal box = (-0.100478 -0.100478 -0.0983567) to (4.14648 4.14648 4.14436)
  orthogonal box = (-0.100478 -0.100478 -0.100478) to (4.14648 4.14648 4.14648)
minimize 	0 1e-6 5000 10000
WARNING: Resetting reneighboring criteria during minimization (../min.cpp:168)
Memory usage per processor = 4.78603 Mbytes
Step TotEng Volume E_pair 
     104    -13.31823    76.600801    -13.31823 
     105    -13.31823    76.600801    -13.31823 
Loop time of 0.00011611 on 1 procs for 1 steps with 4 atoms

0.0% CPU use with 1 MPI tasks x 1 OpenMP threads

Minimization stats:
  Stopping criterion = quadratic factors are zero
  Energy initial, next-to-last, final = 
        -13.3182295169     -13.3182295169     -13.3182295169
  Force two-norm initial, final = 1.31443e-15 1.31443e-15
  Force max component initial, final = 7.12971e-16 7.12971e-16
  Final line search alpha, max atom move = 1 7.12971e-16
  Iterations, force evaluations = 1 2

MPI task timing breakdown:
Section |  min time  |  avg time  |  max time  |%varavg| %total
---------------------------------------------------------------
Pair    | 3.3855e-05 | 3.3855e-05 | 3.3855e-05 |   0.0 | 29.16
Neigh   | 0          | 0          | 0          |   0.0 |  0.00
Comm    | 1.0252e-05 | 1.0252e-05 | 1.0252e-05 |   0.0 |  8.83
Output  | 0          | 0          | 0          |   0.0 |  0.00
Modify  | 0          | 0          | 0          |   0.0 |  0.00
Other   |            | 7.2e-05    |            |       | 62.01

Nlocal:    4 ave 4 max 4 min
Histogram: 1 0 0 0 0 0 0 0 0 0
Nghost:    662 ave 662 max 662 min
Histogram: 1 0 0 0 0 0 0 0 0 0
Neighs:    280 ave 280 max 280 min
Histogram: 1 0 0 0 0 0 0 0 0 0

Total # of neighbors = 280
Ave neighs/atom = 70
Neighbor list builds = 0
Dangerous builds = 0
print           "Vol and Energy = ${vt}	${etev} ${etkcal}"
Vol and Energy = 19.1502003639969	-3.32955737921566 -76.5798197219603
next		e
jump		SELF loop1
Total wall time: 0:00:00
